 Gaussian 16, Revision C.01,
 Gaussian 16:  ES64L-G16RevC.01  3-Jul-2019

 -------------------------------------------------------
 # WB97XD/6-311G SCF=XQC FORCE nosym pop=full guess=read
 -------------------------------------------------------

 -----------
 MD Step 999
 -----------
 Symbolic Z-matrix:
 Charge =  0 Multiplicity = 1

                          Input orientation:
 ---------------------------------------------------------------------
 Center     Atomic      Atomic             Coordinates (Angstroms)
 Number     Number       Type             X           Y           Z
 ---------------------------------------------------------------------
      1          6           0       -0.337366   -0.582965    0.002188
      2          1           0        0.225284   -1.524280   -0.000453
      3          1           0       -1.418374   -0.577027   -0.000861
      4          6           0        0.331704    0.575116    0.000797
      5          1           0       -0.154144    1.570460   -0.000953
      6          1           0        1.447166    0.656832   -0.000843
 ---------------------------------------------------------------------

 SCF Done:  E(RwB97XD) =  -78.5552404803     A.U. after    8 cycles

 Alpha  occ. eigenvalues --  -10.29092 -10.28767  -0.86399  -0.67191  -0.55973
 Alpha  occ. eigenvalues --   -0.50922  -0.43587  -0.35704
 Alpha virt. eigenvalues --    0.08017   0.14078   0.16451   0.16986   0.24057
 Alpha virt. eigenvalues --    0.37133   0.39324   0.40112   0.46293   0.48858
 Alpha virt. eigenvalues --    0.49364   0.59105   0.66537   0.69130   0.77187

 Mulliken charges:
               1
     1  C   -0.339113
     2  H    0.174364
     3  H    0.176226
     4  C   -0.347610
     5  H    0.168406
     6  H    0.167728
 Sum of Mulliken charges =   0.00000

 Dipole moment (field-independent basis, Debye):
    X=              0.0014    Y=              0.0261    Z=             -0.0075  Tot=              0.0272
 Quadrupole moment (field-independent basis, Debye-Ang):
   XX=            -12.2034   YY=            -12.2182   ZZ=            -15.6767
   XY=              0.0143   XZ=              0.0011   YZ=              0.0010

 Normal termination of Gaussian 16 at Wed Jan 11 18:38:07 2023.
