 Gaussian 16, Revision C.01,
 Gaussian 16:  ES64L-G16RevC.01  3-Jul-2019

 -------------------------------------------------------
 # WB97XD/6-311G SCF=XQC FORCE nosym pop=full guess=read
 -------------------------------------------------------

 ------------
 MD Step 1000
 ------------
 Symbolic Z-matrix:
 Charge =  0 Multiplicity = 1

                          Input orientation:
 ---------------------------------------------------------------------
 Center     Atomic      Atomic             Coordinates (Angstroms)
 Number     Number       Type             X           Y           Z
 ---------------------------------------------------------------------
      1          6           0       -0.336965   -0.582364    0.008011
      2          1           0        0.228073   -1.528801   -0.029674
      3          1           0       -1.425948   -0.584329   -0.031197
      4          6           0        0.332907    0.577649    0.005856
      5          1           0       -0.151848    1.562515   -0.033557
      6          1           0        1.437233    0.645959   -0.031648
 ---------------------------------------------------------------------

 SCF Done:  E(RwB97XD) =  -78.5555310184     A.U. after    8 cycles

 Alpha  occ. eigenvalues --  -10.28967 -10.28879  -0.86359  -0.67249  -0.55947
 Alpha  occ. eigenvalues --   -0.50884  -0.43688  -0.35660
 Alpha virt. eigenvalues --    0.07937   0.14085   0.16486   0.17027   0.24086
 Alpha virt. eigenvalues --    0.37169   0.39391   0.39990   0.46499   0.48847
 Alpha virt. eigenvalues --    0.49397   0.59094   0.66570   0.69111   0.77374

 Mulliken charges:
               1
     1  C   -0.339356
     2  H    0.172845
     3  H    0.174897
     4  C   -0.346973
     5  H    0.169812
     6  H    0.168775
 Sum of Mulliken charges =  -0.00000

 Dipole moment (field-independent basis, Debye):
    X=              0.0090    Y=              0.0313    Z=             -0.1278  Tot=              0.1319
 Quadrupole moment (field-independent basis, Debye-Ang):
   XX=            -12.2011   YY=            -12.2268   ZZ=            -15.6713
   XY=              0.0056   XZ=              0.0011   YZ=             -0.0030

 Normal termination of Gaussian 16 at Wed Jan 11 18:38:28 2023.
