 Gaussian 16, Revision C.01,
 Gaussian 16:  ES64L-G16RevC.01  3-Jul-2019

 -------------------------------------------------------
 # WB97XD/6-311G SCF=XQC FORCE nosym pop=full guess=read
 -------------------------------------------------------

 -----------
 MD Step 999
 -----------
 Symbolic Z-matrix:
 Charge =  0 Multiplicity = 1

                          Input orientation:
 ---------------------------------------------------------------------
 Center     Atomic      Atomic             Coordinates (Angstroms)
 Number     Number       Type             X           Y           Z
 ---------------------------------------------------------------------
      1          6           0       -0.336011   -0.581004    0.006706
      2          1           0        0.220162   -1.528106   -0.021647
      3          1           0       -1.420436   -0.586343   -0.022660
      4          6           0        0.332209    0.576156    0.004810
      5          1           0       -0.155739    1.565657   -0.025344
      6          1           0        1.444566    0.649815   -0.024321
 ---------------------------------------------------------------------

 SCF Done:  E(RwB97XD) =  -78.5555895676     A.U. after    8 cycles

 Alpha  occ. eigenvalues --  -10.29025 -10.28792  -0.86416  -0.67215  -0.55918
 Alpha  occ. eigenvalues --   -0.50993  -0.43581  -0.35722
 Alpha virt. eigenvalues --    0.08019   0.14097   0.16450   0.16996   0.24085
 Alpha virt. eigenvalues --    0.37380   0.39265   0.40013   0.46341   0.48856
 Alpha virt. eigenvalues --    0.49355   0.59122   0.66528   0.69092   0.77265

 Mulliken charges:
               1
     1  C   -0.339153
     2  H    0.173194
     3  H    0.175115
     4  C   -0.346303
     5  H    0.169067
     6  H    0.168080
 Sum of Mulliken charges =   0.00000

 Dipole moment (field-independent basis, Debye):
    X=              0.0010    Y=              0.0235    Z=             -0.0969  Tot=              0.0997
 Quadrupole moment (field-independent basis, Debye-Ang):
   XX=            -12.2098   YY=            -12.2135   ZZ=            -15.6662
   XY=              0.0228   XZ=             -0.0003   YZ=             -0.0035

 Normal termination of Gaussian 16 at Wed Jan 11 18:54:01 2023.
