 Gaussian 16, Revision C.01,
 Gaussian 16:  ES64L-G16RevC.01  3-Jul-2019

 -------------------------------------------------------
 # WB97XD/6-311G SCF=XQC FORCE nosym pop=full guess=read
 -------------------------------------------------------

 ------------
 MD Step 1000
 ------------
 Symbolic Z-matrix:
 Charge =  0 Multiplicity = 1

                          Input orientation:
 ---------------------------------------------------------------------
 Center     Atomic      Atomic             Coordinates (Angstroms)
 Number     Number       Type             X           Y           Z
 ---------------------------------------------------------------------
      1          6           0       -0.337358   -0.584126    0.006855
      2          1           0        0.224523   -1.522744   -0.023723
      3          1           0       -1.422162   -0.576880   -0.024079
      4          6           0        0.333269    0.577182    0.004681
      5          1           0       -0.156091    1.568041   -0.026177
      6          1           0        1.440251    0.652125   -0.025678
 ---------------------------------------------------------------------

 SCF Done:  E(RwB97XD) =  -78.5554193795     A.U. after    8 cycles

 Alpha  occ. eigenvalues --  -10.29034 -10.28816  -0.86341  -0.67256  -0.56004
 Alpha  occ. eigenvalues --   -0.50840  -0.43721  -0.35634
 Alpha virt. eigenvalues --    0.07921   0.14091   0.16508   0.17039   0.24066
 Alpha virt. eigenvalues --    0.37077   0.39442   0.40000   0.46475   0.48882
 Alpha virt. eigenvalues --    0.49414   0.59079   0.66610   0.69191   0.77260

 Mulliken charges:
               1
     1  C   -0.339444
     2  H    0.174297
     3  H    0.175614
     4  C   -0.347791
     5  H    0.168707
     6  H    0.168617
 Sum of Mulliken charges =   0.00000

 Dipole moment (field-independent basis, Debye):
    X=              0.0086    Y=              0.0257    Z=             -0.1022  Tot=              0.1057
 Quadrupole moment (field-independent basis, Debye-Ang):
   XX=            -12.1975   YY=            -12.2254   ZZ=            -15.6760
   XY=              0.0013   XZ=             -0.0002   YZ=             -0.0014

 Normal termination of Gaussian 16 at Wed Jan 11 19:45:14 2023.
