 Gaussian 16, Revision C.01,
 Gaussian 16:  ES64L-G16RevC.01  3-Jul-2019

 -------------------------------------------------------
 # WB97XD/6-311G SCF=XQC FORCE nosym pop=full guess=read
 -------------------------------------------------------

 -----------
 MD Step 999
 -----------
 Symbolic Z-matrix:
 Charge =  0 Multiplicity = 1

                          Input orientation:
 ---------------------------------------------------------------------
 Center     Atomic      Atomic             Coordinates (Angstroms)
 Number     Number       Type             X           Y           Z
 ---------------------------------------------------------------------
      1          6           0       -0.334884   -0.579666    0.005596
      2          1           0        0.205887   -1.532258   -0.018631
      3          1           0       -1.420884   -0.600662   -0.019745
      4          6           0        0.333514    0.577861    0.004488
      5          1           0       -0.170506    1.561827   -0.020590
      6          1           0        1.443699    0.634475   -0.019317
 ---------------------------------------------------------------------

 SCF Done:  E(RwB97XD) =  -78.5562277971     A.U. after    8 cycles

 Alpha  occ. eigenvalues --  -10.29039 -10.28749  -0.86399  -0.67220  -0.55902
 Alpha  occ. eigenvalues --   -0.50995  -0.43649  -0.35709
 Alpha virt. eigenvalues --    0.08020   0.14111   0.16463   0.17020   0.24095
 Alpha virt. eigenvalues --    0.37713   0.39289   0.39659   0.46396   0.48813
 Alpha virt. eigenvalues --    0.49364   0.59123   0.66545   0.69115   0.77273

 Mulliken charges:
               1
     1  C   -0.340149
     2  H    0.172240
     3  H    0.173889
     4  C   -0.344168
     5  H    0.169272
     6  H    0.168916
 Sum of Mulliken charges =  -0.00000

 Dipole moment (field-independent basis, Debye):
    X=             -0.0023    Y=              0.0078    Z=             -0.0815  Tot=              0.0819
 Quadrupole moment (field-independent basis, Debye-Ang):
   XX=            -12.2040   YY=            -12.2110   ZZ=            -15.6652
   XY=              0.0209   XZ=              0.0016   YZ=             -0.0010

 Normal termination of Gaussian 16 at Wed Jan 11 16:32:58 2023.
