 Gaussian 16, Revision C.01,
 Gaussian 16:  ES64L-G16RevC.01  3-Jul-2019

 -------------------------------------------------------
 # WB97XD/6-311G SCF=XQC FORCE nosym pop=full guess=read
 -------------------------------------------------------

 ------------
 MD Step 1000
 ------------
 Symbolic Z-matrix:
 Charge =  0 Multiplicity = 1

                          Input orientation:
 ---------------------------------------------------------------------
 Center     Atomic      Atomic             Coordinates (Angstroms)
 Number     Number       Type             X           Y           Z
 ---------------------------------------------------------------------
      1          6           0       -0.335551   -0.580339    0.003830
      2          1           0        0.210002   -1.534075   -0.009702
      3          1           0       -1.419676   -0.595283   -0.010194
      4          6           0        0.333242    0.577954    0.003112
      5          1           0       -0.167268    1.559985   -0.011052
      6          1           0        1.445646    0.638972   -0.010583
 ---------------------------------------------------------------------

 SCF Done:  E(RwB97XD) =  -78.5561710453     A.U. after    8 cycles

 Alpha  occ. eigenvalues --  -10.29030 -10.28775  -0.86382  -0.67224  -0.55918
 Alpha  occ. eigenvalues --   -0.50961  -0.43667  -0.35694
 Alpha virt. eigenvalues --    0.08014   0.14104   0.16472   0.17016   0.24085
 Alpha virt. eigenvalues --    0.37599   0.39312   0.39711   0.46408   0.48791
 Alpha virt. eigenvalues --    0.49373   0.59113   0.66564   0.69119   0.77282

 Mulliken charges:
               1
     1  C   -0.340024
     2  H    0.172381
     3  H    0.174287
     4  C   -0.344751
     5  H    0.169476
     6  H    0.168631
 Sum of Mulliken charges =   0.00000

 Dipole moment (field-independent basis, Debye):
    X=             -0.0053    Y=              0.0148    Z=             -0.0459  Tot=              0.0485
 Quadrupole moment (field-independent basis, Debye-Ang):
   XX=            -12.2017   YY=            -12.2100   ZZ=            -15.6700
   XY=              0.0169   XZ=              0.0002   YZ=             -0.0011

 Normal termination of Gaussian 16 at Wed Jan 11 18:45:42 2023.
