 Gaussian 16, Revision C.01,
 Gaussian 16:  ES64L-G16RevC.01  3-Jul-2019

 -------------------------------------------------------
 # WB97XD/6-311G SCF=XQC FORCE nosym pop=full guess=read
 -------------------------------------------------------

 -----------
 MD Step 999
 -----------
 Symbolic Z-matrix:
 Charge =  0 Multiplicity = 1

                          Input orientation:
 ---------------------------------------------------------------------
 Center     Atomic      Atomic             Coordinates (Angstroms)
 Number     Number       Type             X           Y           Z
 ---------------------------------------------------------------------
      1          6           0       -0.336669   -0.582870    0.003459
      2          1           0        0.224646   -1.518204   -0.002385
      3          1           0       -1.419285   -0.578582   -0.003166
      4          6           0        0.332266    0.575476    0.001671
      5          1           0       -0.154412    1.575123   -0.005829
      6          1           0        1.446020    0.654264   -0.005232
 ---------------------------------------------------------------------

 SCF Done:  E(RwB97XD) =  -78.5552729400     A.U. after    8 cycles

 Alpha  occ. eigenvalues --  -10.29115 -10.28726  -0.86402  -0.67194  -0.55994
 Alpha  occ. eigenvalues --   -0.50917  -0.43601  -0.35700
 Alpha virt. eigenvalues --    0.08014   0.14084   0.16458   0.17000   0.24057
 Alpha virt. eigenvalues --    0.37153   0.39346   0.40082   0.46289   0.48893
 Alpha virt. eigenvalues --    0.49367   0.59106   0.66542   0.69177   0.77165

 Mulliken charges:
               1
     1  C   -0.339153
     2  H    0.174739
     3  H    0.176219
     4  C   -0.347629
     5  H    0.168054
     6  H    0.167771
 Sum of Mulliken charges =  -0.00000

 Dipole moment (field-independent basis, Debye):
    X=              0.0064    Y=              0.0199    Z=             -0.0222  Tot=              0.0305
 Quadrupole moment (field-independent basis, Debye-Ang):
   XX=            -12.2017   YY=            -12.2198   ZZ=            -15.6750
   XY=              0.0130   XZ=             -0.0006   YZ=             -0.0035

 Normal termination of Gaussian 16 at Wed Jan 11 18:39:12 2023.
