 Gaussian 16, Revision C.01,
 Gaussian 16:  ES64L-G16RevC.01  3-Jul-2019

 ----------------------------------------------------
 # AM1/STO-5G SCF=XQC FORCE nosym pop=full guess=read
 ----------------------------------------------------

 ------------
 MD Step 5000
 ------------
 Symbolic Z-matrix:
 Charge =  0 Multiplicity = 1

                          Input orientation:
 ---------------------------------------------------------------------
 Center     Atomic      Atomic             Coordinates (Angstroms)
 Number     Number       Type             X           Y           Z
 ---------------------------------------------------------------------
      1          6           0        5.550654   -1.455608    0.339369
      2          6           0        4.394371   -0.761720    0.758177
      3          6           0        3.188212   -0.847726    0.074799
      4          6           0        3.204534   -1.640972   -1.105052
      5          6           0        4.280193   -2.393278   -1.549278
      6          6           0        5.495396   -2.241543   -0.868542
      7          6           0        2.005437   -0.069376    0.335985
      8          6           0        0.970482   -1.009209   -1.689091
      9          6           0        0.935735   -0.109718   -0.535727
     10          6           0       -0.315354    0.639303   -0.339522
     11          1           0       -0.464694    1.348272    0.471654
     12          6           0       -1.351634    0.427471   -1.243891
     13          6           0       -1.297572   -0.534608   -2.321586
     14          6           0       -0.123828   -1.326258   -2.539672
     15          1           0        6.515436   -1.382150    0.856260
     16          1           0        4.377234   -0.212290    1.679991
     17          1           0        3.986263   -2.975180   -2.425433
     18          1           0       -2.389811    0.823633   -0.994142
     19          1           0       -0.083669   -2.193974   -3.221631
     20          7           0       -2.365710   -0.731420   -3.151631
     21          7           0        6.703583   -2.822374   -1.386981
     22         15           0       -4.877655    1.602477    1.214615
     23          6           0        1.932301    0.640699    1.603782
     24          6           0        0.901200    0.351460    2.539257
     25          6           0        2.889354    1.623237    1.857780
     26          6           0        0.966094    1.047008    3.734693
     27          1           0        0.161587   -0.429353    2.304479
     28          6           0        2.837985    2.313144    3.039128
     29          1           0        3.701808    1.816596    1.108719
     30          6           0        1.887790    2.061753    4.019836
     31          1           0        0.145031    0.825870    4.464935
     32          1           0        3.613238    3.073754    3.193499
     33          1           0        1.843044    2.593217    4.976537
     34          9           0       -4.302771    2.811537    0.443027
     35          9           0       -3.432989    1.081391    1.340215
     36          9           0       -4.865416    2.356985    2.553012
     37          9           0       -5.383015    0.259955    1.782728
     38          9           0       -4.857617    0.862300   -0.198834
     39          9           0       -6.329182    2.049786    0.887954
     40          6           0       -3.481934    0.108094   -2.948050
     41          1           0       -3.957307   -0.160180   -1.936905
     42          1           0       -3.174536    1.195117   -2.976955
     43          1           0       -4.357399   -0.064359   -3.674719
     44          6           0       -2.528873   -1.954695   -3.973318
     45          1           0       -1.499927   -2.477466   -4.007271
     46          1           0       -3.291889   -2.677399   -3.557777
     47          1           0       -2.681677   -1.473745   -5.055961
     48          6           0        6.662693   -3.409419   -2.682384
     49          1           0        7.040604   -4.471865   -2.730421
     50          1           0        5.695113   -3.270772   -3.182970
     51          1           0        7.422460   -2.830039   -3.360534
     52          6           0        7.929467   -2.273369   -0.887044
     53          1           0        7.939333   -1.174377   -0.908934
     54          1           0        8.255959   -2.583191    0.182449
     55          1           0        8.753123   -2.726485   -1.537304
     56          8           0        2.055406   -1.836054   -1.892971
 ---------------------------------------------------------------------

 SCF Done:  E(RAM1) = -0.459145327676     A.U. after   14 cycles

 Alpha  occ. eigenvalues --   -1.74278  -1.70234  -1.69986  -1.68881  -1.58956
 Alpha  occ. eigenvalues --   -1.54441  -1.53808  -1.51128  -1.49917  -1.48556
 Alpha  occ. eigenvalues --   -1.40922  -1.39249  -1.30202  -1.23151  -1.19118
 Alpha  occ. eigenvalues --   -1.17460  -1.17072  -1.15399  -1.09573  -1.08049
 Alpha  occ. eigenvalues --   -1.03088  -0.98761  -0.94622  -0.90598  -0.89852
 Alpha  occ. eigenvalues --   -0.87990  -0.85455  -0.83986  -0.77220  -0.75764
 Alpha  occ. eigenvalues --   -0.71074  -0.69406  -0.68559  -0.67666  -0.67418
 Alpha  occ. eigenvalues --   -0.65835  -0.65757  -0.64112  -0.63562  -0.62782
 Alpha  occ. eigenvalues --   -0.62254  -0.61771  -0.60761  -0.60301  -0.59917
 Alpha  occ. eigenvalues --   -0.59798  -0.59576  -0.59253  -0.57922  -0.56719
 Alpha  occ. eigenvalues --   -0.56052  -0.55076  -0.53989  -0.53635  -0.53197
 Alpha  occ. eigenvalues --   -0.53020  -0.52022  -0.51619  -0.51093  -0.50656
 Alpha  occ. eigenvalues --   -0.50548  -0.50334  -0.49449  -0.49026  -0.47916
 Alpha  occ. eigenvalues --   -0.47692  -0.47448  -0.47344  -0.46725  -0.46152
 Alpha  occ. eigenvalues --   -0.45572  -0.44416  -0.44107  -0.43513  -0.43344
 Alpha  occ. eigenvalues --   -0.43018  -0.42800  -0.42609  -0.42281  -0.41269
 Alpha  occ. eigenvalues --   -0.40964  -0.40712  -0.39981  -0.39787  -0.39204
 Alpha  occ. eigenvalues --   -0.38873  -0.37906  -0.36595  -0.33934
 Alpha virt. eigenvalues --   -0.10647  -0.05211  -0.03424  -0.02548  -0.01701
 Alpha virt. eigenvalues --   -0.00723   0.00004   0.01048   0.03502   0.03721
 Alpha virt. eigenvalues --    0.04671   0.05591   0.06524   0.07238   0.07491

 Mulliken charges:
               1
     1  C   -0.202094
     2  C   -0.019123
     3  C   -0.175582
     4  C    0.120685
     5  C   -0.225283
     6  C    0.161562
     7  C    0.197577
     8  C    0.187372
     9  C   -0.182938
    10  C    0.018040
    11  H    0.194588
    12  C   -0.215312
    13  C    0.216121
    14  C   -0.295106
    15  H    0.162046
    16  H    0.157183
    17  H    0.175179
    18  H    0.230781
    19  H    0.179168
    20  N   -0.198305
    21  N   -0.264304
    22  P    2.930920
    23  C   -0.126666
    24  C   -0.074948
    25  C   -0.110456
    26  C   -0.130345
    27  H    0.166668
    28  C   -0.133997
    29  H    0.141669
    30  C   -0.080386
    31  H    0.150355
    32  H    0.133658
    33  H    0.156640
    34  F   -0.653755
    35  F   -0.662665
    36  F   -0.633879
    37  F   -0.643642
    38  F   -0.687281
    39  F   -0.642931
    40  C   -0.163849
    41  H    0.157256
    42  H    0.123410
    43  H    0.113184
    44  C   -0.099040
    45  H    0.089704
    46  H    0.128700
    47  H    0.114455
    48  C   -0.083172
    49  H    0.098156
    50  H    0.100026
    51  H    0.057720
    52  C   -0.088991
    53  H    0.077342
    54  H    0.090121
    55  H    0.092371
    56  O   -0.128607
 Sum of Mulliken charges =  -0.00000

 Dipole moment (field-independent basis, Debye):
    X=             24.5314    Y=             -8.6771    Z=             -8.3565  Tot=             27.3297
 N-N= 1.933064270091D+03 E-N=-3.309252361118D+03  KE=-4.224737299139D+02
 Orbital energies and kinetic energies (alpha):
                                 1                 2
   1         O                -1.742783         -4.840641
   2         O                -1.702343         -4.902281
   3         O                -1.699856         -4.900727
   4         O                -1.688814         -4.903410
   5         O                -1.589563         -2.899365
   6         O                -1.544407         -4.995658
   7         O                -1.538085         -4.983511

 1\1\GINC-BHD0002\Force\RAM1\ZDO\C23H23F6N2O1P1\BWEIGHT\12-Jan-2023\0\\
 # AM1/STO-5G SCF=XQC FORCE nosym pop=full guess=read\\MD Step 5000\\0,
 1\C,5.55065361,-1.45560838,0.33936927\C,4.39437074,-0.76172019,0.75817
 732\C,3.18821243,-0.8477261,0.07479905\C,3.20453385,-1.64097231,-1.105
 0518\C,4.28019284,-2.39327766,-1.54927754\C,5.49539576,-2.2415431,-0.8
 6854167\C,2.00543707,-0.06937606,0.33598472\C,0.97048216,-1.00920878,-
 1.68909131\C,0.93573513,-0.10971823,-0.53572693\C,-0.31535372,0.639303
 2,-0.33952206\H,-0.46469431,1.34827219,0.47165392\C,-1.35163398,0.4274

 Normal termination of Gaussian 16 at Thu Jan 12 20:11:24 2023.
