 Gaussian 16, Revision C.01,
 Gaussian 16:  ES64L-G16RevC.01  3-Jul-2019

 -------------------------------------------------------
 # WB97XD/6-311G SCF=XQC FORCE nosym pop=full guess=read
 -------------------------------------------------------

 ------------
 MD Step 1000
 ------------
 Symbolic Z-matrix:
 Charge =  0 Multiplicity = 1

                          Input orientation:
 ---------------------------------------------------------------------
 Center     Atomic      Atomic             Coordinates (Angstroms)
 Number     Number       Type             X           Y           Z
 ---------------------------------------------------------------------
      1          6           0       -0.336348   -0.581887    0.008193
      2          1           0        0.221621   -1.532377   -0.029321
      3          1           0       -1.423032   -0.582363   -0.029910
      4          6           0        0.333693    0.578091    0.006578
      5          1           0       -0.158725    1.560776   -0.033593
      6          1           0        1.442158    0.649581   -0.032804
 ---------------------------------------------------------------------

 SCF Done:  E(RwB97XD) =  -78.5555061117     A.U. after    8 cycles

 Alpha  occ. eigenvalues --  -10.29004 -10.28886  -0.86350  -0.67223  -0.55924
 Alpha  occ. eigenvalues --   -0.50889  -0.43672  -0.35662
 Alpha virt. eigenvalues --    0.07933   0.14078   0.16467   0.17010   0.24076
 Alpha virt. eigenvalues --    0.37255   0.39345   0.39916   0.46463   0.48803
 Alpha virt. eigenvalues --    0.49393   0.59088   0.66556   0.69058   0.77312

 Mulliken charges:
               1
     1  C   -0.339508
     2  H    0.172986
     3  H    0.174764
     4  C   -0.346467
     5  H    0.169437
     6  H    0.168789
 Sum of Mulliken charges =  -0.00000

 Dipole moment (field-independent basis, Debye):
    X=              0.0016    Y=              0.0284    Z=             -0.1287  Tot=              0.1318
 Quadrupole moment (field-independent basis, Debye-Ang):
   XX=            -12.2036   YY=            -12.2257   ZZ=            -15.6751
   XY=              0.0069   XZ=             -0.0021   YZ=             -0.0054

 Normal termination of Gaussian 16 at Wed Jan 11 18:38:43 2023.
