 Gaussian 16, Revision C.01,
 Gaussian 16:  ES64L-G16RevC.01  3-Jul-2019

 -------------------------------------------------------
 # WB97XD/6-311G SCF=XQC FORCE nosym pop=full guess=read
 -------------------------------------------------------

 -----------
 MD Step 999
 -----------
 Symbolic Z-matrix:
 Charge =  0 Multiplicity = 1

                          Input orientation:
 ---------------------------------------------------------------------
 Center     Atomic      Atomic             Coordinates (Angstroms)
 Number     Number       Type             X           Y           Z
 ---------------------------------------------------------------------
      1          6           0       -0.337348   -0.583774    0.007437
      2          1           0        0.232067   -1.519077   -0.022973
      3          1           0       -1.423357   -0.573053   -0.024105
      4          6           0        0.332404    0.575553    0.004559
      5          1           0       -0.148376    1.574271   -0.026894
      6          1           0        1.441740    0.658972   -0.025810
 ---------------------------------------------------------------------

 SCF Done:  E(RwB97XD) =  -78.5548943135     A.U. after    8 cycles

 Alpha  occ. eigenvalues --  -10.29065 -10.28837  -0.86378  -0.67202  -0.55976
 Alpha  occ. eigenvalues --   -0.50880  -0.43596  -0.35681
 Alpha virt. eigenvalues --    0.07961   0.14069   0.16453   0.16987   0.24057
 Alpha virt. eigenvalues --    0.36933   0.39350   0.40232   0.46343   0.48880
 Alpha virt. eigenvalues --    0.49380   0.59089   0.66541   0.69097   0.77211

 Mulliken charges:
               1
     1  C   -0.338935
     2  H    0.174773
     3  H    0.176315
     4  C   -0.348673
     5  H    0.168348
     6  H    0.168172
 Sum of Mulliken charges =   0.00000

 Dipole moment (field-independent basis, Debye):
    X=              0.0124    Y=              0.0299    Z=             -0.1029  Tot=              0.1078
 Quadrupole moment (field-independent basis, Debye-Ang):
   XX=            -12.2034   YY=            -12.2295   ZZ=            -15.6784
   XY=              0.0094   XZ=              0.0004   YZ=             -0.0026

 Normal termination of Gaussian 16 at Wed Jan 11 18:37:56 2023.
