 Gaussian 16, Revision C.01,
 Gaussian 16:  ES64L-G16RevC.01  3-Jul-2019

 -------------------------------------------------------
 # WB97XD/6-311G SCF=XQC FORCE nosym pop=full guess=read
 -------------------------------------------------------

 ------------
 MD Step 1000
 ------------
 Symbolic Z-matrix:
 Charge =  0 Multiplicity = 1

                          Input orientation:
 ---------------------------------------------------------------------
 Center     Atomic      Atomic             Coordinates (Angstroms)
 Number     Number       Type             X           Y           Z
 ---------------------------------------------------------------------
      1          6           0       -0.335572   -0.581545    0.005274
      2          1           0        0.209338   -1.528221   -0.015266
      3          1           0       -1.420835   -0.590097   -0.016382
      4          6           0        0.333870    0.577855    0.003882
      5          1           0       -0.170648    1.562720   -0.018767
      6          1           0        1.443445    0.640602   -0.017667
 ---------------------------------------------------------------------

 SCF Done:  E(RwB97XD) =  -78.5560924912     A.U. after    8 cycles

 Alpha  occ. eigenvalues --  -10.29054 -10.28741  -0.86372  -0.67227  -0.55968
 Alpha  occ. eigenvalues --   -0.50904  -0.43718  -0.35669
 Alpha virt. eigenvalues --    0.07983   0.14103   0.16490   0.17045   0.24082
 Alpha virt. eigenvalues --    0.37509   0.39405   0.39673   0.46448   0.48841
 Alpha virt. eigenvalues --    0.49390   0.59105   0.66584   0.69191   0.77257

 Mulliken charges:
               1
     1  C   -0.340027
     2  H    0.173237
     3  H    0.174331
     4  C   -0.345255
     5  H    0.168791
     6  H    0.168922
 Sum of Mulliken charges =   0.00000

 Dipole moment (field-independent basis, Debye):
    X=              0.0001    Y=              0.0111    Z=             -0.0717  Tot=              0.0725
 Quadrupole moment (field-independent basis, Debye-Ang):
   XX=            -12.1962   YY=            -12.2195   ZZ=            -15.6704
   XY=              0.0059   XZ=              0.0001   YZ=             -0.0037

 Normal termination of Gaussian 16 at Wed Jan 11 18:48:55 2023.
