 Gaussian 16, Revision C.01,
 Gaussian 16:  ES64L-G16RevC.01  3-Jul-2019

 -------------------------------------------------------
 # WB97XD/6-311G SCF=XQC FORCE nosym pop=full guess=read
 -------------------------------------------------------

 ------------
 MD Step 1000
 ------------
 Symbolic Z-matrix:
 Charge =  0 Multiplicity = 1

                          Input orientation:
 ---------------------------------------------------------------------
 Center     Atomic      Atomic             Coordinates (Angstroms)
 Number     Number       Type             X           Y           Z
 ---------------------------------------------------------------------
      1          6           0       -0.336625   -0.582872    0.006204
      2          1           0        0.219080   -1.526847   -0.020191
      3          1           0       -1.421664   -0.582385   -0.020552
      4          6           0        0.333454    0.577480    0.004496
      5          1           0       -0.160673    1.566827   -0.021926
      6          1           0        1.444360    0.649982   -0.021505
 ---------------------------------------------------------------------

 SCF Done:  E(RwB97XD) =  -78.5555840348     A.U. after    8 cycles

 Alpha  occ. eigenvalues --  -10.29077 -10.28814  -0.86343  -0.67219  -0.55948
 Alpha  occ. eigenvalues --   -0.50883  -0.43678  -0.35656
 Alpha virt. eigenvalues --    0.07947   0.14084   0.16473   0.17008   0.24063
 Alpha virt. eigenvalues --    0.37255   0.39353   0.39902   0.46410   0.48808
 Alpha virt. eigenvalues --    0.49397   0.59082   0.66570   0.69101   0.77226

 Mulliken charges:
               1
     1  C   -0.339558
     2  H    0.173798
     3  H    0.175188
     4  C   -0.346720
     5  H    0.168772
     6  H    0.168520
 Sum of Mulliken charges =   0.00000

 Dipole moment (field-independent basis, Debye):
    X=              0.0030    Y=              0.0213    Z=             -0.0877  Tot=              0.0903
 Quadrupole moment (field-independent basis, Debye-Ang):
   XX=            -12.2008   YY=            -12.2206   ZZ=            -15.6791
   XY=              0.0086   XZ=              0.0002   YZ=             -0.0007

 Normal termination of Gaussian 16 at Wed Jan 11 18:35:00 2023.
