 Gaussian 16, Revision C.01,
 Gaussian 16:  ES64L-G16RevC.01  3-Jul-2019

 -------------------------------------------------------
 # WB97XD/6-311G SCF=XQC FORCE nosym pop=full guess=read
 -------------------------------------------------------

 -----------
 MD Step 999
 -----------
 Symbolic Z-matrix:
 Charge =  0 Multiplicity = 1

                          Input orientation:
 ---------------------------------------------------------------------
 Center     Atomic      Atomic             Coordinates (Angstroms)
 Number     Number       Type             X           Y           Z
 ---------------------------------------------------------------------
      1          6           0       -0.336474   -0.582342    0.007102
      2          1           0        0.217417   -1.528551   -0.026699
      3          1           0       -1.420969   -0.582252   -0.027243
      4          6           0        0.332759    0.576131    0.005648
      5          1           0       -0.160195    1.568141   -0.030882
      6          1           0        1.444797    0.653446   -0.030330
 ---------------------------------------------------------------------

 SCF Done:  E(RwB97XD) =  -78.5553376793     A.U. after    8 cycles

 Alpha  occ. eigenvalues --  -10.29095 -10.28808  -0.86379  -0.67196  -0.55904
 Alpha  occ. eigenvalues --   -0.50954  -0.43588  -0.35697
 Alpha virt. eigenvalues --    0.07971   0.14081   0.16436   0.16981   0.24068
 Alpha virt. eigenvalues --    0.37317   0.39249   0.39996   0.46330   0.48819
 Alpha virt. eigenvalues --    0.49370   0.59097   0.66516   0.69033   0.77200

 Mulliken charges:
               1
     1  C   -0.339247
     2  H    0.173766
     3  H    0.175199
     4  C   -0.346566
     5  H    0.168437
     6  H    0.168411
 Sum of Mulliken charges =  -0.00000

 Dipole moment (field-independent basis, Debye):
    X=              0.0019    Y=              0.0213    Z=             -0.1164  Tot=              0.1184
 Quadrupole moment (field-independent basis, Debye-Ang):
   XX=            -12.2104   YY=            -12.2185   ZZ=            -15.6743
   XY=              0.0195   XZ=             -0.0022   YZ=             -0.0054

 Normal termination of Gaussian 16 at Wed Jan 11 18:45:35 2023.
