 Gaussian 16, Revision C.01,
 Gaussian 16:  ES64L-G16RevC.01  3-Jul-2019

 -------------------------------------------------------
 # WB97XD/6-311G SCF=XQC FORCE nosym pop=full guess=read
 -------------------------------------------------------

 ------------
 MD Step 1000
 ------------
 Symbolic Z-matrix:
 Charge =  0 Multiplicity = 1

                          Input orientation:
 ---------------------------------------------------------------------
 Center     Atomic      Atomic             Coordinates (Angstroms)
 Number     Number       Type             X           Y           Z
 ---------------------------------------------------------------------
      1          6           0       -0.335323   -0.580603    0.006363
      2          1           0        0.206618   -1.533317   -0.021631
      3          1           0       -1.418417   -0.591194   -0.021982
      4          6           0        0.333560    0.577412    0.004593
      5          1           0       -0.170160    1.560987   -0.022259
      6          1           0        1.445685    0.644293   -0.021956
 ---------------------------------------------------------------------

 SCF Done:  E(RwB97XD) =  -78.5559733338     A.U. after    8 cycles

 Alpha  occ. eigenvalues --  -10.29061 -10.28748  -0.86391  -0.67226  -0.55913
 Alpha  occ. eigenvalues --   -0.50980  -0.43647  -0.35699
 Alpha virt. eigenvalues --    0.08001   0.14106   0.16466   0.17017   0.24088
 Alpha virt. eigenvalues --    0.37606   0.39288   0.39746   0.46391   0.48825
 Alpha virt. eigenvalues --    0.49371   0.59114   0.66547   0.69122   0.77250

 Mulliken charges:
               1
     1  C   -0.339845
     2  H    0.172840
     3  H    0.174280
     4  C   -0.344949
     5  H    0.168859
     6  H    0.168815
 Sum of Mulliken charges =   0.00000

 Dipole moment (field-independent basis, Debye):
    X=             -0.0052    Y=              0.0137    Z=             -0.0909  Tot=              0.0921
 Quadrupole moment (field-independent basis, Debye-Ang):
   XX=            -12.2052   YY=            -12.2118   ZZ=            -15.6670
   XY=              0.0203   XZ=              0.0014   YZ=              0.0013

 Normal termination of Gaussian 16 at Wed Jan 11 18:30:57 2023.
