 Gaussian 16, Revision C.01,
 Gaussian 16:  ES64L-G16RevC.01  3-Jul-2019

 -------------------------------------------------------
 # WB97XD/6-311G SCF=XQC FORCE nosym pop=full guess=read
 -------------------------------------------------------

 -----------
 MD Step 999
 -----------
 Symbolic Z-matrix:
 Charge =  0 Multiplicity = 1

                          Input orientation:
 ---------------------------------------------------------------------
 Center     Atomic      Atomic             Coordinates (Angstroms)
 Number     Number       Type             X           Y           Z
 ---------------------------------------------------------------------
      1          6           0       -0.337066   -0.582968    0.007662
      2          1           0        0.229527   -1.522155   -0.025446
      3          1           0       -1.419907   -0.572759   -0.025726
      4          6           0        0.332003    0.575181    0.005198
      5          1           0       -0.148388    1.570157   -0.029643
      6          1           0        1.442594    0.661033   -0.028943
 ---------------------------------------------------------------------

 SCF Done:  E(RwB97XD) =  -78.5549527200     A.U. after    8 cycles

 Alpha  occ. eigenvalues --  -10.29030 -10.28804  -0.86411  -0.67230  -0.55977
 Alpha  occ. eigenvalues --   -0.50935  -0.43577  -0.35703
 Alpha virt. eigenvalues --    0.07984   0.14087   0.16464   0.17000   0.24073
 Alpha virt. eigenvalues --    0.37023   0.39329   0.40265   0.46348   0.48932
 Alpha virt. eigenvalues --    0.49369   0.59109   0.66543   0.69145   0.77246

 Mulliken charges:
               1
     1  C   -0.338808
     2  H    0.174497
     3  H    0.176209
     4  C   -0.348426
     5  H    0.168529
     6  H    0.167999
 Sum of Mulliken charges =   0.00000

 Dipole moment (field-independent basis, Debye):
    X=              0.0070    Y=              0.0323    Z=             -0.1124  Tot=              0.1172
 Quadrupole moment (field-independent basis, Debye-Ang):
   XX=            -12.2088   YY=            -12.2221   ZZ=            -15.6687
   XY=              0.0159   XZ=             -0.0019   YZ=             -0.0043

 Normal termination of Gaussian 16 at Wed Jan 11 18:35:15 2023.
