 Gaussian 16, Revision C.01,
 Gaussian 16:  ES64L-G16RevC.01  3-Jul-2019

 -------------------------------------------------------
 # WB97XD/6-311G SCF=XQC FORCE nosym pop=full guess=read
 -------------------------------------------------------

 ------------
 MD Step 1000
 ------------
 Symbolic Z-matrix:
 Charge =  0 Multiplicity = 1

                          Input orientation:
 ---------------------------------------------------------------------
 Center     Atomic      Atomic             Coordinates (Angstroms)
 Number     Number       Type             X           Y           Z
 ---------------------------------------------------------------------
      1          6           0       -0.334160   -0.579128    0.008168
      2          1           0        0.191251   -1.540027   -0.034646
      3          1           0       -1.417783   -0.602820   -0.035058
      4          6           0        0.334350    0.578506    0.006788
      5          1           0       -0.182681    1.553480   -0.036188
      6          1           0        1.443654    0.633485   -0.035627
 ---------------------------------------------------------------------

 SCF Done:  E(RwB97XD) =  -78.5561369154     A.U. after    8 cycles

 Alpha  occ. eigenvalues --  -10.29042 -10.28722  -0.86404  -0.67259  -0.55881
 Alpha  occ. eigenvalues --   -0.51031  -0.43660  -0.35705
 Alpha virt. eigenvalues --    0.07982   0.14124   0.16474   0.17039   0.24114
 Alpha virt. eigenvalues --    0.37874   0.39254   0.39590   0.46450   0.48861
 Alpha virt. eigenvalues --    0.49371   0.59125   0.66540   0.69130   0.77289

 Mulliken charges:
               1
     1  C   -0.340804
     2  H    0.171917
     3  H    0.173015
     4  C   -0.343109
     5  H    0.169298
     6  H    0.169683
 Sum of Mulliken charges =   0.00000

 Dipole moment (field-independent basis, Debye):
    X=             -0.0105    Y=              0.0031    Z=             -0.1417  Tot=              0.1422
 Quadrupole moment (field-independent basis, Debye-Ang):
   XX=            -12.2108   YY=            -12.2098   ZZ=            -15.6560
   XY=              0.0257   XZ=              0.0008   YZ=             -0.0007

 Normal termination of Gaussian 16 at Wed Jan 11 16:48:05 2023.
