 Gaussian 16, Revision C.01,
 Gaussian 16:  ES64L-G16RevC.01  3-Jul-2019

 ----------------------------------------------------------------------
 # BLYP/STO-3G SCF=XQC TD=(singlets,nstates=2,root=1) FORCE nosym pop=f
 ull guess=read
 ----------------------------------------------------------------------

 -----------
 MD Step 708
 -----------
 Symbolic Z-matrix:
 Charge =  0 Multiplicity = 1

                          Input orientation:
 ---------------------------------------------------------------------
 Center     Atomic      Atomic             Coordinates (Angstroms)
 Number     Number       Type             X           Y           Z
 ---------------------------------------------------------------------
      1          6           0        4.265572    5.308552    5.256161
      2          6           0        5.738271    5.330982    5.300567
      3          6           0        6.336781    6.650087    5.343512
      4          6           0        5.701647    7.902667    5.342549
      5          6           0        4.237094    7.805077    5.269163
      6          6           0        3.518133    6.572288    5.331945
      7          1           0        3.678361    4.384557    5.363312
      8          1           0        6.340791    4.631636    4.757382
      9          1           0        6.268158    8.829361    5.086176
     10          1           0        3.637177    8.688080    4.956256
     11          7           0        7.856800    6.533562    5.156792
     12          1           0        8.344684    6.034726    6.010248
     13          1           0        8.303433    6.007041    4.290010
     14          7           0        2.031805    6.670455    5.064137
     15          1           0        1.467413    5.762606    4.838364
     16          1           0        1.561427    7.063564    6.055648
 ---------------------------------------------------------------------

 SCF Done:  E(RB-LYP) =  -338.378486698     A.U. after    1 cycles

 Excitation energies and oscillator strengths:

 Excited state symmetry could not be determined.
 Excited State   1:      Singlet-?Sym    2.2750 eV  544.97 nm  f=0.0005  <S**2>=0.000
      29 -> 30         0.70696
 This state for optimization and/or second-order correction.
 Total Energy, E(TD-HF/TD-DFT) =  -338.294880280
 Copying the excited state density for this state as the 1-particle RhoCI density.

 Excited state symmetry could not be determined.
 Excited State   2:      Singlet-?Sym    2.8426 eV  436.16 nm  f=0.0002  <S**2>=0.000
      29 -> 31         0.70700

 Alpha  occ. eigenvalues --  -13.83238 -13.76849  -9.77308  -9.76472  -9.74651
 Alpha  occ. eigenvalues --   -9.73960  -9.73665  -9.73225  -0.73793  -0.71089
 Alpha  occ. eigenvalues --   -0.65401  -0.60431  -0.56822  -0.49501  -0.45309
 Alpha  occ. eigenvalues --   -0.39214  -0.36300  -0.35498  -0.32248  -0.31690
 Alpha  occ. eigenvalues --   -0.31386  -0.30917  -0.25558  -0.24760  -0.23048
 Alpha  occ. eigenvalues --   -0.15838  -0.13903  -0.09061  -0.04363
 Alpha virt. eigenvalues --    0.03880   0.06037   0.15781   0.20580   0.22415
 Alpha virt. eigenvalues --    0.26657   0.30547   0.32760   0.35026   0.35733
 Alpha virt. eigenvalues --    0.36907   0.38297   0.41033   0.45121   0.48583

 Mulliken charges:
               1
     1  C   -0.086627
     2  C   -0.099659
     3  C    0.066594
     4  C   -0.081333
     5  C   -0.074822
     6  C    0.048572
     7  H    0.069019
     8  H    0.084715
     9  H    0.096402
    10  H    0.081640
    11  N   -0.365500
    12  H    0.133081
    13  H    0.139196
    14  N   -0.314451
    15  H    0.163306
    16  H    0.139868
 Sum of Mulliken charges =  -0.00000

 Dipole moment (field-independent basis, Debye):
    X=             -1.2809    Y=             -1.7426    Z=              0.5590  Tot=              2.2338
 Quadrupole moment (field-independent basis, Debye-Ang):
   XX=            -51.3303   YY=            -64.3063   ZZ=            -38.5293
   XY=            -18.3550   XZ=             -7.5770   YZ=             -4.3846

 Normal termination of Gaussian 16 at Fri Dec 30 21:22:44 2022.
