 Gaussian 16, Revision C.01,
 Gaussian 16:  ES64L-G16RevC.01  3-Jul-2019

 ----------------------------------------------------------------------
 # WB97XD/6-311G SCF=XQC TD=(read,singlets,nstates=3,root=2) FORCE nosy
 m pop=full guess=read
 ----------------------------------------------------------------------

 ----------
 MD Step 79
 ----------
 Symbolic Z-matrix:
 Charge =  0 Multiplicity = 1

                          Input orientation:
 ---------------------------------------------------------------------
 Center     Atomic      Atomic             Coordinates (Angstroms)
 Number     Number       Type             X           Y           Z
 ---------------------------------------------------------------------
      1          6           0       -0.334228   -0.582129    0.007158
      2          1           0        0.180611   -1.536343   -0.025020
      3          1           0       -1.425368   -0.616492   -0.023893
      4          6           0        0.342360    0.592178    0.005253
      5          1           0       -0.210278    1.503412   -0.028715
      6          1           0        1.401745    0.573298   -0.027227
 ---------------------------------------------------------------------

 SCF Done:  E(RwB97XD) =  -78.5552896331     A.U. after    1 cycles

 Excitation energies and oscillator strengths:

 Excited state symmetry could not be determined.
 Excited State   1:      Singlet-?Sym    7.9806 eV  155.36 nm  f=0.3986  <S**2>=0.000
       8 ->  9         0.70138

 Excited state symmetry could not be determined.
 Excited State   2:      Singlet-?Sym    8.4290 eV  147.09 nm  f=0.0008  <S**2>=0.000
       7 ->  9         0.69191
       8 -> 11         0.10242
 This state for optimization and/or second-order correction.
 Total Energy, E(TD-HF/TD-DFT) =  -78.2455309677
 Copying the excited state density for this state as the 1-particle RhoCI density.

 Excited state symmetry could not be determined.
 Excited State   3:      Singlet-?Sym    8.4556 eV  146.63 nm  f=0.0301  <S**2>=0.000
       8 -> 10         0.69887

 Alpha  occ. eigenvalues --  -10.28727 -10.28311  -0.86301  -0.67750  -0.56743
 Alpha  occ. eigenvalues --   -0.50334  -0.44687  -0.35323
 Alpha virt. eigenvalues --    0.07677   0.14265   0.17006   0.17583   0.24148
 Alpha virt. eigenvalues --    0.37012   0.39096   0.40771   0.47467   0.49623
 Alpha virt. eigenvalues --    0.49663   0.59071   0.67237   0.70592   0.77335

 Mulliken charges:
               1
     1  C   -0.348945
     2  H    0.170346
     3  H    0.169725
     4  C   -0.342900
     5  H    0.175583
     6  H    0.176191
 Sum of Mulliken charges =   0.00000

 Dipole moment (field-independent basis, Debye):
    X=              0.0002    Y=             -0.0115    Z=             -0.1110  Tot=              0.1116
 Quadrupole moment (field-independent basis, Debye-Ang):
   XX=            -12.1277   YY=            -12.2479   ZZ=            -15.6226
   XY=             -0.0992   XZ=             -0.0024   YZ=             -0.0052

 Normal termination of Gaussian 16 at Thu Jan 12 17:02:21 2023.
