 Gaussian 16, Revision C.01,
 Gaussian 16:  ES64L-G16RevC.01  3-Jul-2019

 -------------------------------------------------------
 # WB97XD/6-311G SCF=XQC FORCE nosym pop=full guess=read
 -------------------------------------------------------

 ------------
 MD Step 1000
 ------------
 Symbolic Z-matrix:
 Charge =  0 Multiplicity = 1

                          Input orientation:
 ---------------------------------------------------------------------
 Center     Atomic      Atomic             Coordinates (Angstroms)
 Number     Number       Type             X           Y           Z
 ---------------------------------------------------------------------
      1          6           0       -0.335984   -0.581346    0.006310
      2          1           0        0.224054   -1.531735   -0.018349
      3          1           0       -1.425692   -0.584457   -0.019562
      4          6           0        0.333472    0.577971    0.004597
      5          1           0       -0.156966    1.561255   -0.021486
      6          1           0        1.438726    0.645358   -0.020386
 ---------------------------------------------------------------------

 SCF Done:  E(RwB97XD) =  -78.5558392766     A.U. after    8 cycles

 Alpha  occ. eigenvalues --  -10.28963 -10.28876  -0.86366  -0.67219  -0.55942
 Alpha  occ. eigenvalues --   -0.50888  -0.43685  -0.35673
 Alpha virt. eigenvalues --    0.07978   0.14084   0.16474   0.17018   0.24082
 Alpha virt. eigenvalues --    0.37253   0.39395   0.39894   0.46469   0.48801
 Alpha virt. eigenvalues --    0.49385   0.59101   0.66567   0.69102   0.77360

 Mulliken charges:
               1
     1  C   -0.339534
     2  H    0.172695
     3  H    0.174518
     4  C   -0.346311
     5  H    0.169671
     6  H    0.168960
 Sum of Mulliken charges =  -0.00000

 Dipole moment (field-independent basis, Debye):
    X=              0.0060    Y=              0.0286    Z=             -0.0844  Tot=              0.0893
 Quadrupole moment (field-independent basis, Debye-Ang):
   XX=            -12.1984   YY=            -12.2233   ZZ=            -15.6744
   XY=              0.0038   XZ=              0.0005   YZ=             -0.0027

 Normal termination of Gaussian 16 at Wed Jan 11 18:46:13 2023.
