 Gaussian 16, Revision C.01,
 Gaussian 16:  ES64L-G16RevC.01  3-Jul-2019

 ----------------------------------------------------------------------
 # BPL/sto-3g TD=(read,singlets,nstates=4,root=3) FORCE nosym pop=full
 guess=read
 ----------------------------------------------------------------------

 ---------
 MD Step 1
 ---------
 Symbolic Z-matrix:
 Charge =  0 Multiplicity = 1

                          Input orientation:
 ---------------------------------------------------------------------
 Center     Atomic      Atomic             Coordinates (Angstroms)
 Number     Number       Type             X           Y           Z
 ---------------------------------------------------------------------
      1          6           0       -1.596110   -0.228833    0.000000
      2          6           0       -0.200950   -0.228833    0.000000
      3          6           0        0.496588    0.978918    0.000000
      4          6           0       -0.201066    2.187427   -0.001199
      5          6           0       -1.595891    2.187349   -0.001678
      6          6           0       -2.293492    0.979143   -0.000682
      7          1           0       -2.145869   -1.181150    0.000450
      8          1           0        0.348558   -1.181346    0.001315
      9          1           0        1.596268    0.978998    0.000634
     10          1           0        0.349134    3.139570   -0.001258
     11          1           0       -2.146013    3.139630   -0.002631
     12          1           0       -3.393096    0.979326   -0.000862
 ---------------------------------------------------------------------

 SCF Done:  E(RB-P81) =  -230.559572489     A.U. after    1 cycles

 Excitation energies and oscillator strengths:

 Excited state symmetry could not be determined.
 Excited State   1:      Singlet-?Sym    6.1220 eV  202.52 nm  f=0.0000  <S**2>=0.000
      20 -> 22         0.49959
      21 -> 23         0.49948

 Excited state symmetry could not be determined.
 Excited State   2:      Singlet-?Sym    7.4076 eV  167.37 nm  f=0.0000  <S**2>=0.000
      17 -> 24        -0.12085
      20 -> 23        -0.49205
      21 -> 22         0.49306

 Excited state symmetry could not be determined.
 Excited State   3:      Singlet-?Sym    8.5052 eV  145.77 nm  f=0.0000  <S**2>=0.000
      18 -> 23        -0.48785
      19 -> 22         0.50542
 This state for optimization and/or second-order correction.
 Total Energy, E(TD-HF/TD-DFT) =  -230.247011078
 Copying the excited state density for this state as the 1-particle RhoCI density.

 Excited state symmetry could not be determined.
 Excited State   4:      Singlet-?Sym    8.6086 eV  144.02 nm  f=0.0000  <S**2>=0.000
      18 -> 22         0.45995
      18 -> 23        -0.19963
      19 -> 22        -0.19258
      19 -> 23        -0.45959

 Alpha  occ. eigenvalues --   -9.79375  -9.79333  -9.79333  -9.79256  -9.79255
 Alpha  occ. eigenvalues --   -9.79202  -0.74446  -0.64579  -0.64575  -0.51500
 Alpha  occ. eigenvalues --   -0.51496  -0.44466  -0.38824  -0.36283  -0.34754
 Alpha  occ. eigenvalues --   -0.34753  -0.28697  -0.27306  -0.27299  -0.18122
 Alpha  occ. eigenvalues --   -0.18117
 Alpha virt. eigenvalues --    0.04096   0.04102   0.18971   0.26856   0.32241
 Alpha virt. eigenvalues --    0.32252   0.37927   0.39383   0.39389   0.50921
 Alpha virt. eigenvalues --    0.50929   0.52599   0.52614   0.67742   0.72749

 Mulliken charges:
               1
     1  C   -0.074305
     2  C   -0.074319
     3  C   -0.074289
     4  C   -0.074281
     5  C   -0.074294
     6  C   -0.074313
     7  H    0.074310
     8  H    0.074297
     9  H    0.074301
    10  H    0.074299
    11  H    0.074284
    12  H    0.074310
 Sum of Mulliken charges =   0.00000

 Dipole moment (field-independent basis, Debye):
    X=              0.0000    Y=              0.0000    Z=              0.0004  Tot=              0.0004
 Quadrupole moment (field-independent basis, Debye-Ang):
   XX=            -30.6045   YY=            -30.6055   ZZ=            -35.1527
   XY=              0.0003   XZ=              0.0018   YZ=             -0.0028

 Normal termination of Gaussian 16 at Tue Dec 27 19:34:52 2022.
