 Gaussian 16, Revision C.01,
 Gaussian 16:  ES64L-G16RevC.01  3-Jul-2019

 -------------------------------------------------------
 # WB97XD/6-311G SCF=XQC FORCE nosym pop=full guess=read
 -------------------------------------------------------

 ------------
 MD Step 1000
 ------------
 Symbolic Z-matrix:
 Charge =  0 Multiplicity = 1

                          Input orientation:
 ---------------------------------------------------------------------
 Center     Atomic      Atomic             Coordinates (Angstroms)
 Number     Number       Type             X           Y           Z
 ---------------------------------------------------------------------
      1          6           0       -0.336900   -0.582764    0.007144
      2          1           0        0.230860   -1.528885   -0.023891
      3          1           0       -1.427018   -0.573356   -0.024314
      4          6           0        0.332740    0.576282    0.004854
      5          1           0       -0.152521    1.563905   -0.027249
      6          1           0        1.438804    0.656126   -0.026950
 ---------------------------------------------------------------------

 SCF Done:  E(RwB97XD) =  -78.5552313486     A.U. after    8 cycles

 Alpha  occ. eigenvalues --  -10.28990 -10.28902  -0.86374  -0.67190  -0.55948
 Alpha  occ. eigenvalues --   -0.50859  -0.43631  -0.35682
 Alpha virt. eigenvalues --    0.07970   0.14060   0.16447   0.16993   0.24071
 Alpha virt. eigenvalues --    0.36982   0.39392   0.40111   0.46426   0.48819
 Alpha virt. eigenvalues --    0.49378   0.59096   0.66529   0.69058   0.77317

 Mulliken charges:
               1
     1  C   -0.339070
     2  H    0.173659
     3  H    0.175242
     4  C   -0.347760
     5  H    0.169132
     6  H    0.168798
 Sum of Mulliken charges =   0.00000

 Dipole moment (field-independent basis, Debye):
    X=              0.0094    Y=              0.0364    Z=             -0.1050  Tot=              0.1115
 Quadrupole moment (field-independent basis, Debye-Ang):
   XX=            -12.2003   YY=            -12.2334   ZZ=            -15.6785
   XY=             -0.0001   XZ=             -0.0014   YZ=             -0.0033

 Normal termination of Gaussian 16 at Wed Jan 11 18:48:12 2023.
