 Gaussian 16, Revision C.01,
 Gaussian 16:  ES64L-G16RevC.01  3-Jul-2019

 -------------------------------------------------------
 # WB97XD/6-311G SCF=XQC FORCE nosym pop=full guess=read
 -------------------------------------------------------

 -----------
 MD Step 999
 -----------
 Symbolic Z-matrix:
 Charge =  0 Multiplicity = 1

                          Input orientation:
 ---------------------------------------------------------------------
 Center     Atomic      Atomic             Coordinates (Angstroms)
 Number     Number       Type             X           Y           Z
 ---------------------------------------------------------------------
      1          6           0       -0.337245   -0.582303    0.003822
      2          1           0        0.226136   -1.526431   -0.009140
      3          1           0       -1.420417   -0.583124   -0.009786
      4          6           0        0.331877    0.576011    0.002403
      5          1           0       -0.152745    1.567932   -0.010593
      6          1           0        1.445563    0.651167   -0.010097
 ---------------------------------------------------------------------

 SCF Done:  E(RwB97XD) =  -78.5554725228     A.U. after    8 cycles

 Alpha  occ. eigenvalues --  -10.29048 -10.28810  -0.86387  -0.67205  -0.55947
 Alpha  occ. eigenvalues --   -0.50928  -0.43607  -0.35697
 Alpha virt. eigenvalues --    0.08008   0.14081   0.16457   0.16989   0.24066
 Alpha virt. eigenvalues --    0.37203   0.39318   0.40052   0.46341   0.48825
 Alpha virt. eigenvalues --    0.49369   0.59104   0.66546   0.69096   0.77241

 Mulliken charges:
               1
     1  C   -0.339212
     2  H    0.173571
     3  H    0.175808
     4  C   -0.347078
     5  H    0.169056
     6  H    0.167857
 Sum of Mulliken charges =  -0.00000

 Dipole moment (field-independent basis, Debye):
    X=              0.0020    Y=              0.0267    Z=             -0.0432  Tot=              0.0508
 Quadrupole moment (field-independent basis, Debye-Ang):
   XX=            -12.2023   YY=            -12.2177   ZZ=            -15.6758
   XY=              0.0158   XZ=              0.0008   YZ=             -0.0003

 Normal termination of Gaussian 16 at Wed Jan 11 18:33:41 2023.
