 Gaussian 16, Revision C.01,
 Gaussian 16:  ES64L-G16RevC.01  3-Jul-2019

 -------------------------------------------------------
 # WB97XD/6-311G SCF=XQC FORCE nosym pop=full guess=read
 -------------------------------------------------------

 ------------
 MD Step 1000
 ------------
 Symbolic Z-matrix:
 Charge =  0 Multiplicity = 1

                          Input orientation:
 ---------------------------------------------------------------------
 Center     Atomic      Atomic             Coordinates (Angstroms)
 Number     Number       Type             X           Y           Z
 ---------------------------------------------------------------------
      1          6           0       -0.335567   -0.580762    0.006631
      2          1           0        0.213685   -1.532450   -0.020689
      3          1           0       -1.423227   -0.590398   -0.023263
      4          6           0        0.333118    0.577450    0.004651
      5          1           0       -0.164116    1.558642   -0.026799
      6          1           0        1.442098    0.642945   -0.024408
 ---------------------------------------------------------------------

 SCF Done:  E(RwB97XD) =  -78.5560151106     A.U. after    8 cycles

 Alpha  occ. eigenvalues --  -10.28979 -10.28816  -0.86393  -0.67226  -0.55927
 Alpha  occ. eigenvalues --   -0.50954  -0.43662  -0.35696
 Alpha virt. eigenvalues --    0.07999   0.14103   0.16471   0.17025   0.24093
 Alpha virt. eigenvalues --    0.37496   0.39336   0.39797   0.46436   0.48830
 Alpha virt. eigenvalues --    0.49372   0.59117   0.66562   0.69121   0.77328

 Mulliken charges:
               1
     1  C   -0.339708
     2  H    0.172599
     3  H    0.174117
     4  C   -0.345301
     5  H    0.169472
     6  H    0.168821
 Sum of Mulliken charges =   0.00000

 Dipole moment (field-independent basis, Debye):
    X=             -0.0001    Y=              0.0202    Z=             -0.0975  Tot=              0.0996
 Quadrupole moment (field-independent basis, Debye-Ang):
   XX=            -12.2033   YY=            -12.2168   ZZ=            -15.6664
   XY=              0.0133   XZ=              0.0012   YZ=             -0.0066

 Normal termination of Gaussian 16 at Wed Jan 11 18:31:34 2023.
