 Gaussian 16, Revision C.01,
 Gaussian 16:  ES64L-G16RevC.01  3-Jul-2019

 -------------------------------------------------------
 # WB97XD/6-311G SCF=XQC FORCE nosym pop=full guess=read
 -------------------------------------------------------

 -----------
 MD Step 999
 -----------
 Symbolic Z-matrix:
 Charge =  0 Multiplicity = 1

                          Input orientation:
 ---------------------------------------------------------------------
 Center     Atomic      Atomic             Coordinates (Angstroms)
 Number     Number       Type             X           Y           Z
 ---------------------------------------------------------------------
      1          6           0       -0.335865   -0.581044    0.006949
      2          1           0        0.217124   -1.532398   -0.025637
      3          1           0       -1.425873   -0.589334   -0.026635
      4          6           0        0.332698    0.576611    0.004936
      5          1           0       -0.160427    1.562158   -0.028508
      6          1           0        1.440174    0.645657   -0.027578
 ---------------------------------------------------------------------

 SCF Done:  E(RwB97XD) =  -78.5557992021     A.U. after    8 cycles

 Alpha  occ. eigenvalues --  -10.28989 -10.28860  -0.86395  -0.67202  -0.55889
 Alpha  occ. eigenvalues --   -0.50973  -0.43607  -0.35710
 Alpha virt. eigenvalues --    0.08001   0.14091   0.16441   0.16993   0.24088
 Alpha virt. eigenvalues --    0.37430   0.39274   0.39903   0.46387   0.48799
 Alpha virt. eigenvalues --    0.49362   0.59115   0.66526   0.69033   0.77307

 Mulliken charges:
               1
     1  C   -0.339385
     2  H    0.172642
     3  H    0.174224
     4  C   -0.345670
     5  H    0.169301
     6  H    0.168888
 Sum of Mulliken charges =  -0.00000

 Dipole moment (field-independent basis, Debye):
    X=              0.0043    Y=              0.0230    Z=             -0.1094  Tot=              0.1119
 Quadrupole moment (field-independent basis, Debye-Ang):
   XX=            -12.2074   YY=            -12.2181   ZZ=            -15.6693
   XY=              0.0185   XZ=              0.0005   YZ=             -0.0020

 Normal termination of Gaussian 16 at Wed Jan 11 19:53:51 2023.
