 Gaussian 16, Revision C.01,
 Gaussian 16:  ES64L-G16RevC.01  3-Jul-2019

 -------------------------------------------------------
 # WB97XD/6-311G SCF=XQC FORCE nosym pop=full guess=read
 -------------------------------------------------------

 -----------
 MD Step 999
 -----------
 Symbolic Z-matrix:
 Charge =  0 Multiplicity = 1

                          Input orientation:
 ---------------------------------------------------------------------
 Center     Atomic      Atomic             Coordinates (Angstroms)
 Number     Number       Type             X           Y           Z
 ---------------------------------------------------------------------
      1          6           0       -0.334850   -0.579298    0.006688
      2          1           0        0.206616   -1.530893   -0.023137
      3          1           0       -1.419033   -0.603797   -0.024762
      4          6           0        0.333209    0.577860    0.005577
      5          1           0       -0.168228    1.565667   -0.026369
      6          1           0        1.447537    0.633491   -0.024546
 ---------------------------------------------------------------------

 SCF Done:  E(RwB97XD) =  -78.5559487138     A.U. after    8 cycles

 Alpha  occ. eigenvalues --  -10.29105 -10.28734  -0.86402  -0.67199  -0.55866
 Alpha  occ. eigenvalues --   -0.51022  -0.43597  -0.35722
 Alpha virt. eigenvalues --    0.08017   0.14097   0.16435   0.16994   0.24089
 Alpha virt. eigenvalues --    0.37750   0.39208   0.39691   0.46331   0.48794
 Alpha virt. eigenvalues --    0.49354   0.59120   0.66498   0.69046   0.77207

 Mulliken charges:
               1
     1  C   -0.340048
     2  H    0.172254
     3  H    0.174243
     4  C   -0.344075
     5  H    0.169247
     6  H    0.168379
 Sum of Mulliken charges =  -0.00000

 Dipole moment (field-independent basis, Debye):
    X=             -0.0042    Y=              0.0051    Z=             -0.1020  Tot=              0.1022
 Quadrupole moment (field-independent basis, Debye-Ang):
   XX=            -12.2109   YY=            -12.2094   ZZ=            -15.6670
   XY=              0.0266   XZ=              0.0015   YZ=             -0.0027

 Normal termination of Gaussian 16 at Wed Jan 11 16:38:03 2023.
