 Gaussian 16, Revision C.01,
 Gaussian 16:  ES64L-G16RevC.01  3-Jul-2019

 -------------------------------------------------------
 # WB97XD/6-311G SCF=XQC FORCE nosym pop=full guess=read
 -------------------------------------------------------

 ------------
 MD Step 1000
 ------------
 Symbolic Z-matrix:
 Charge =  0 Multiplicity = 1

                          Input orientation:
 ---------------------------------------------------------------------
 Center     Atomic      Atomic             Coordinates (Angstroms)
 Number     Number       Type             X           Y           Z
 ---------------------------------------------------------------------
      1          6           0       -0.334667   -0.579314    0.004425
      2          1           0        0.203149   -1.535631   -0.013076
      3          1           0       -1.420503   -0.601979   -0.013557
      4          6           0        0.333951    0.578663    0.003924
      5          1           0       -0.172704    1.556909   -0.014361
      6          1           0        1.442996    0.632875   -0.014088
 ---------------------------------------------------------------------

 SCF Done:  E(RwB97XD) =  -78.5564613412     A.U. after    8 cycles

 Alpha  occ. eigenvalues --  -10.28995 -10.28756  -0.86391  -0.67251  -0.55915
 Alpha  occ. eigenvalues --   -0.50989  -0.43689  -0.35696
 Alpha virt. eigenvalues --    0.08019   0.14124   0.16489   0.17037   0.24100
 Alpha virt. eigenvalues --    0.37750   0.39321   0.39614   0.46448   0.48816
 Alpha virt. eigenvalues --    0.49374   0.59123   0.66581   0.69161   0.77326

 Mulliken charges:
               1
     1  C   -0.340494
     2  H    0.171885
     3  H    0.173562
     4  C   -0.343839
     5  H    0.169675
     6  H    0.169210
 Sum of Mulliken charges =   0.00000

 Dipole moment (field-independent basis, Debye):
    X=             -0.0051    Y=              0.0088    Z=             -0.0595  Tot=              0.0603
 Quadrupole moment (field-independent basis, Debye-Ang):
   XX=            -12.2010   YY=            -12.2070   ZZ=            -15.6635
   XY=              0.0204   XZ=             -0.0002   YZ=             -0.0014

 Normal termination of Gaussian 16 at Wed Jan 11 16:33:18 2023.
