 Gaussian 16, Revision C.01,
 Gaussian 16:  ES64L-G16RevC.01  3-Jul-2019

 -------------------------------------------------------
 # WB97XD/6-311G SCF=XQC FORCE nosym pop=full guess=read
 -------------------------------------------------------

 ------------
 MD Step 1000
 ------------
 Symbolic Z-matrix:
 Charge =  0 Multiplicity = 1

                          Input orientation:
 ---------------------------------------------------------------------
 Center     Atomic      Atomic             Coordinates (Angstroms)
 Number     Number       Type             X           Y           Z
 ---------------------------------------------------------------------
      1          6           0       -0.336182   -0.581631    0.007620
      2          1           0        0.218839   -1.526630   -0.025450
      3          1           0       -1.418472   -0.585615   -0.026332
      4          6           0        0.333434    0.577796    0.006043
      5          1           0       -0.159592    1.564004   -0.029177
      6          1           0        1.445448    0.647430   -0.028364
 ---------------------------------------------------------------------

 SCF Done:  E(RwB97XD) =  -78.5556144795     A.U. after    8 cycles

 Alpha  occ. eigenvalues --  -10.29045 -10.28775  -0.86375  -0.67243  -0.55962
 Alpha  occ. eigenvalues --   -0.50919  -0.43677  -0.35672
 Alpha virt. eigenvalues --    0.07958   0.14097   0.16488   0.17032   0.24080
 Alpha virt. eigenvalues --    0.37355   0.39357   0.39886   0.46432   0.48874
 Alpha virt. eigenvalues --    0.49390   0.59100   0.66574   0.69161   0.77261

 Mulliken charges:
               1
     1  C   -0.339537
     2  H    0.173340
     3  H    0.175191
     4  C   -0.346346
     5  H    0.169091
     6  H    0.168261
 Sum of Mulliken charges =   0.00000

 Dipole moment (field-independent basis, Debye):
    X=             -0.0007    Y=              0.0210    Z=             -0.1134  Tot=              0.1153
 Quadrupole moment (field-independent basis, Debye-Ang):
   XX=            -12.2024   YY=            -12.2205   ZZ=            -15.6688
   XY=              0.0117   XZ=             -0.0010   YZ=             -0.0041

 Normal termination of Gaussian 16 at Wed Jan 11 19:58:27 2023.
