 Gaussian 16, Revision C.01,
 Gaussian 16:  ES64L-G16RevC.01  3-Jul-2019

 -------------------------------------------------------
 # WB97XD/6-311G SCF=XQC FORCE nosym pop=full guess=read
 -------------------------------------------------------

 ------------
 MD Step 1000
 ------------
 Symbolic Z-matrix:
 Charge =  0 Multiplicity = 1

                          Input orientation:
 ---------------------------------------------------------------------
 Center     Atomic      Atomic             Coordinates (Angstroms)
 Number     Number       Type             X           Y           Z
 ---------------------------------------------------------------------
      1          6           0       -0.337413   -0.583605    0.010734
      2          1           0        0.228600   -1.523438   -0.040556
      3          1           0       -1.419961   -0.572636   -0.041990
      4          6           0        0.332240    0.576141    0.007058
      5          1           0       -0.150190    1.565262   -0.046382
      6          1           0        1.441664    0.658222   -0.044598
 ---------------------------------------------------------------------

 SCF Done:  E(RwB97XD) =  -78.5547430452     A.U. after    8 cycles

 Alpha  occ. eigenvalues --  -10.29014 -10.28832  -0.86391  -0.67252  -0.55985
 Alpha  occ. eigenvalues --   -0.50894  -0.43632  -0.35672
 Alpha virt. eigenvalues --    0.07907   0.14082   0.16481   0.17030   0.24083
 Alpha virt. eigenvalues --    0.37027   0.39369   0.40189   0.46448   0.48968
 Alpha virt. eigenvalues --    0.49394   0.59097   0.66552   0.69149   0.77278

 Mulliken charges:
               1
     1  C   -0.338800
     2  H    0.174228
     3  H    0.175848
     4  C   -0.348389
     5  H    0.168988
     6  H    0.168124
 Sum of Mulliken charges =  -0.00000

 Dipole moment (field-independent basis, Debye):
    X=              0.0059    Y=              0.0343    Z=             -0.1737  Tot=              0.1772
 Quadrupole moment (field-independent basis, Debye-Ang):
   XX=            -12.2122   YY=            -12.2320   ZZ=            -15.6644
   XY=              0.0055   XZ=              0.0001   YZ=             -0.0048

 Normal termination of Gaussian 16 at Wed Jan 11 18:48:45 2023.
