 Gaussian 16, Revision C.01,
 Gaussian 16:  ES64L-G16RevC.01  3-Jul-2019

 -------------------------------------------------------
 # WB97XD/6-311G SCF=XQC FORCE nosym pop=full guess=read
 -------------------------------------------------------

 -----------
 MD Step 999
 -----------
 Symbolic Z-matrix:
 Charge =  0 Multiplicity = 1

                          Input orientation:
 ---------------------------------------------------------------------
 Center     Atomic      Atomic             Coordinates (Angstroms)
 Number     Number       Type             X           Y           Z
 ---------------------------------------------------------------------
      1          6           0       -0.336377   -0.582100    0.011498
      2          1           0        0.218473   -1.526918   -0.046571
      3          1           0       -1.421219   -0.581731   -0.047675
      4          6           0        0.332432    0.575589    0.008064
      5          1           0       -0.157465    1.566758   -0.052241
      6          1           0        1.443139    0.655411   -0.050684
 ---------------------------------------------------------------------

 SCF Done:  E(RwB97XD) =  -78.5548003632     A.U. after    8 cycles

 Alpha  occ. eigenvalues --  -10.29079 -10.28821  -0.86412  -0.67204  -0.55883
 Alpha  occ. eigenvalues --   -0.50997  -0.43537  -0.35716
 Alpha virt. eigenvalues --    0.07926   0.14079   0.16421   0.16988   0.24089
 Alpha virt. eigenvalues --    0.37333   0.39192   0.40097   0.46343   0.48910
 Alpha virt. eigenvalues --    0.49363   0.59108   0.66474   0.68993   0.77215

 Mulliken charges:
               1
     1  C   -0.338761
     2  H    0.173624
     3  H    0.175047
     4  C   -0.346814
     5  H    0.168508
     6  H    0.168395
 Sum of Mulliken charges =  -0.00000

 Dipole moment (field-independent basis, Debye):
    X=              0.0038    Y=              0.0244    Z=             -0.1954  Tot=              0.1969
 Quadrupole moment (field-independent basis, Debye-Ang):
   XX=            -12.2223   YY=            -12.2291   ZZ=            -15.6616
   XY=              0.0232   XZ=             -0.0005   YZ=             -0.0051

 Normal termination of Gaussian 16 at Wed Jan 11 18:48:31 2023.
