 Gaussian 16, Revision C.01,
 Gaussian 16:  ES64L-G16RevC.01  3-Jul-2019

 -------------------------------------------------------
 # WB97XD/6-311G SCF=XQC FORCE nosym pop=full guess=read
 -------------------------------------------------------

 ------------
 MD Step 1000
 ------------
 Symbolic Z-matrix:
 Charge =  0 Multiplicity = 1

                          Input orientation:
 ---------------------------------------------------------------------
 Center     Atomic      Atomic             Coordinates (Angstroms)
 Number     Number       Type             X           Y           Z
 ---------------------------------------------------------------------
      1          6           0       -0.336320   -0.582093    0.005785
      2          1           0        0.219591   -1.528295   -0.017046
      3          1           0       -1.421998   -0.585875   -0.017778
      4          6           0        0.333741    0.577954    0.004558
      5          1           0       -0.161051    1.567274   -0.019801
      6          1           0        1.443886    0.645907   -0.018933
 ---------------------------------------------------------------------

 SCF Done:  E(RwB97XD) =  -78.5557111429     A.U. after    8 cycles

 Alpha  occ. eigenvalues --  -10.29069 -10.28830  -0.86342  -0.67204  -0.55934
 Alpha  occ. eigenvalues --   -0.50883  -0.43676  -0.35660
 Alpha virt. eigenvalues --    0.07958   0.14079   0.16464   0.17003   0.24063
 Alpha virt. eigenvalues --    0.37304   0.39349   0.39843   0.46409   0.48775
 Alpha virt. eigenvalues --    0.49393   0.59084   0.66562   0.69071   0.77236

 Mulliken charges:
               1
     1  C   -0.339668
     2  H    0.173342
     3  H    0.175047
     4  C   -0.346273
     5  H    0.168934
     6  H    0.168618
 Sum of Mulliken charges =  -0.00000

 Dipole moment (field-independent basis, Debye):
    X=              0.0032    Y=              0.0197    Z=             -0.0782  Tot=              0.0807
 Quadrupole moment (field-independent basis, Debye-Ang):
   XX=            -12.1992   YY=            -12.2217   ZZ=            -15.6806
   XY=              0.0080   XZ=             -0.0002   YZ=             -0.0028

 Normal termination of Gaussian 16 at Wed Jan 11 18:39:00 2023.
