 Gaussian 16, Revision C.01,
 Gaussian 16:  ES64L-G16RevC.01  3-Jul-2019

 -------------------------------------------------------
 # WB97XD/6-311G SCF=XQC FORCE nosym pop=full guess=read
 -------------------------------------------------------

 -----------
 MD Step 999
 -----------
 Symbolic Z-matrix:
 Charge =  0 Multiplicity = 1

                          Input orientation:
 ---------------------------------------------------------------------
 Center     Atomic      Atomic             Coordinates (Angstroms)
 Number     Number       Type             X           Y           Z
 ---------------------------------------------------------------------
      1          6           0       -0.336738   -0.582406    0.008739
      2          1           0        0.220563   -1.522715   -0.029920
      3          1           0       -1.413879   -0.576267   -0.030587
      4          6           0        0.331932    0.574906    0.005571
      5          1           0       -0.158222    1.571390   -0.034708
      6          1           0        1.450199    0.658343   -0.033928
 ---------------------------------------------------------------------

 SCF Done:  E(RwB97XD) =  -78.5547518687     A.U. after    8 cycles

 Alpha  occ. eigenvalues --  -10.29160 -10.28699  -0.86431  -0.67177  -0.55970
 Alpha  occ. eigenvalues --   -0.50957  -0.43544  -0.35723
 Alpha virt. eigenvalues --    0.07991   0.14072   0.16430   0.16995   0.24064
 Alpha virt. eigenvalues --    0.37246   0.39271   0.40092   0.46252   0.48937
 Alpha virt. eigenvalues --    0.49355   0.59114   0.66482   0.69140   0.77123

 Mulliken charges:
               1
     1  C   -0.338853
     2  H    0.174549
     3  H    0.176260
     4  C   -0.347377
     5  H    0.167889
     6  H    0.167533
 Sum of Mulliken charges =   0.00000

 Dipole moment (field-independent basis, Debye):
    X=             -0.0024    Y=              0.0215    Z=             -0.1307  Tot=              0.1325
 Quadrupole moment (field-independent basis, Debye-Ang):
   XX=            -12.2130   YY=            -12.2252   ZZ=            -15.6680
   XY=              0.0159   XZ=             -0.0011   YZ=             -0.0041

 Normal termination of Gaussian 16 at Wed Jan 11 18:46:26 2023.
