 Gaussian 16, Revision C.01,
 Gaussian 16:  ES64L-G16RevC.01  3-Jul-2019

 ------------------------------------------
 # BLYP/STO-3G SCF=XQC FORCE nosym pop=full
 ------------------------------------------

 ----------
 MD Step 32
 ----------
 Symbolic Z-matrix:
 Charge =  0 Multiplicity = 1

                          Input orientation:
 ---------------------------------------------------------------------
 Center     Atomic      Atomic             Coordinates (Angstroms)
 Number     Number       Type             X           Y           Z
 ---------------------------------------------------------------------
      1          3           0        0.033846    0.033841    0.069133
      2          1           0        0.229976    0.230037    2.986779
 ---------------------------------------------------------------------

 SCF Done:  E(RB-LYP) =  -7.84488417940     A.U. after   14 cycles

 Alpha  occ. eigenvalues --   -1.80453  -0.09875
 Alpha virt. eigenvalues --   -0.05177   0.01513   0.01513   0.07621

 Mulliken charges:
               1
     1  Li   0.044991
     2  H   -0.044991
 Sum of Mulliken charges =  -0.00000

 Dipole moment (field-independent basis, Debye):
    X=             -0.2759    Y=             -0.2760    Z=             -4.1045  Tot=              4.1230
 Quadrupole moment (field-independent basis, Debye-Ang):
   XX=             -6.1189   YY=             -6.1189   ZZ=            -11.0695
   XY=             -0.0387   XZ=             -0.4552   YZ=             -0.4553

 Normal termination of Gaussian 16 at Thu Dec 29 00:17:32 2022.
