 Gaussian 16, Revision C.01,
 Gaussian 16:  ES64L-G16RevC.01  3-Jul-2019

 ------------------------------------------
 # BLYP/STO-3G SCF=XQC FORCE nosym pop=full
 ------------------------------------------

 -----------
 MD Step 999
 -----------
 Symbolic Z-matrix:
 Charge =  0 Multiplicity = 1

                          Input orientation:
 ---------------------------------------------------------------------
 Center     Atomic      Atomic             Coordinates (Angstroms)
 Number     Number       Type             X           Y           Z
 ---------------------------------------------------------------------
      1          3           0        1.826927    1.827029    2.577012
      2          1           0        1.870060    1.870279   -0.299178
 ---------------------------------------------------------------------

 SCF Done:  E(RB-LYP) =  -7.84877890985     A.U. after   15 cycles

 Alpha  occ. eigenvalues --   -1.80429  -0.09962
 Alpha virt. eigenvalues --   -0.05097   0.01577   0.01577   0.08179

 Mulliken charges:
               1
     1  Li   0.043695
     2  H   -0.043695
 Sum of Mulliken charges =  -0.00000

 Dipole moment (field-independent basis, Debye):
    X=             -0.0626    Y=             -0.0628    Z=              4.1770  Tot=              4.1780
 Quadrupole moment (field-independent basis, Debye-Ang):
   XX=             -6.2876   YY=             -6.2882   ZZ=             11.0808
   XY=             -0.2302   XZ=              7.5355   YZ=              7.5357

 Normal termination of Gaussian 16 at Thu Dec 29 01:34:32 2022.
