 Gaussian 16, Revision C.01,
 Gaussian 16:  ES64L-G16RevC.01  3-Jul-2019

 -------------------------------------------------------
 # WB97XD/6-311G SCF=XQC FORCE nosym pop=full guess=read
 -------------------------------------------------------

 -----------
 MD Step 999
 -----------
 Symbolic Z-matrix:
 Charge =  0 Multiplicity = 1

                          Input orientation:
 ---------------------------------------------------------------------
 Center     Atomic      Atomic             Coordinates (Angstroms)
 Number     Number       Type             X           Y           Z
 ---------------------------------------------------------------------
      1          6           0       -0.336580   -0.581622    0.004324
      2          1           0        0.222583   -1.527221   -0.011583
      3          1           0       -1.421628   -0.588795   -0.012368
      4          6           0        0.332118    0.576537    0.003121
      5          1           0       -0.155124    1.568715   -0.013793
      6          1           0        1.445262    0.645816   -0.013059
 ---------------------------------------------------------------------

 SCF Done:  E(RwB97XD) =  -78.5556543234     A.U. after    8 cycles

 Alpha  occ. eigenvalues --  -10.29059 -10.28810  -0.86385  -0.67193  -0.55917
 Alpha  occ. eigenvalues --   -0.50950  -0.43602  -0.35703
 Alpha virt. eigenvalues --    0.08012   0.14083   0.16445   0.16983   0.24069
 Alpha virt. eigenvalues --    0.37334   0.39282   0.39959   0.46333   0.48794
 Alpha virt. eigenvalues --    0.49364   0.59106   0.66532   0.69057   0.77234

 Mulliken charges:
               1
     1  C   -0.339342
     2  H    0.173201
     3  H    0.175338
     4  C   -0.346320
     5  H    0.169165
     6  H    0.167959
 Sum of Mulliken charges =   0.00000

 Dipole moment (field-independent basis, Debye):
    X=              0.0025    Y=              0.0215    Z=             -0.0544  Tot=              0.0586
 Quadrupole moment (field-independent basis, Debye-Ang):
   XX=            -12.2051   YY=            -12.2147   ZZ=            -15.6757
   XY=              0.0179   XZ=              0.0002   YZ=             -0.0018

 Normal termination of Gaussian 16 at Wed Jan 11 18:49:45 2023.
