 Gaussian 16, Revision C.01,
 Gaussian 16:  ES64L-G16RevC.01  3-Jul-2019

 ----------------------------------------------------------------------
 # B3LYP/6-31G* SCF=XQC TD=(singlets,nstates=2,root=1) FORCE nosym pop=
 full guess=read
 ----------------------------------------------------------------------

 -----------
 MD Step 122
 -----------
 Symbolic Z-matrix:
 Charge =  0 Multiplicity = 1

                          Input orientation:
 ---------------------------------------------------------------------
 Center     Atomic      Atomic             Coordinates (Angstroms)
 Number     Number       Type             X           Y           Z
 ---------------------------------------------------------------------
      1          3           0        1.020918    1.020573    0.818501
      2          9           0        0.612667    0.612758    4.686676
 ---------------------------------------------------------------------

 SCF Done:  E(RB3LYP) =  -107.237523140     A.U. after    1 cycles

 Excitation energies and oscillator strengths:

 Excited state symmetry could not be determined.
 Excited State   1:      Singlet-?Sym    0.1486 eV 8344.42 nm  f=0.0001  <S**2>=0.000
       4 ->  7        -0.76144
       4 -> 10        -0.10386
       4 <-  7         0.29431
 This state for optimization and/or second-order correction.
 Total Energy, E(TD-HF/TD-DFT) =  -107.232062804
 Copying the excited state density for this state as the 1-particle RhoCI density.

 Excited state symmetry could not be determined.
 Excited State   2:      Singlet-?Sym    0.1486 eV 8344.41 nm  f=0.0001  <S**2>=0.000
       5 ->  7        -0.76144
       5 -> 10        -0.10386
       5 <-  7         0.29431

 Alpha  occ. eigenvalues --  -24.45603  -2.13765  -0.88960  -0.16653  -0.16653
 Alpha  occ. eigenvalues --   -0.16641
 Alpha virt. eigenvalues --   -0.12300  -0.04669  -0.04669  -0.02283   0.07560
 Alpha virt. eigenvalues --    0.08066   0.08066   0.12776   0.38748   0.38749
 Alpha virt. eigenvalues --    0.39185   0.39185   0.39433   1.04314   1.13254

 Mulliken charges:
               1
     1  Li   0.532805
     2  F   -0.532805
 Sum of Mulliken charges =   0.00000

 Dipole moment (field-independent basis, Debye):
    X=              1.2096    Y=              1.2083    Z=            -11.4607  Tot=             11.5875
 Quadrupole moment (field-independent basis, Debye-Ang):
   XX=             -7.0019   YY=             -7.0045   ZZ=            -67.2059
   XY=              2.0295   XZ=             -6.5508   YZ=             -6.5523

 Normal termination of Gaussian 16 at Fri Dec 30 21:57:46 2022.
