 Gaussian 16, Revision C.01,
 Gaussian 16:  ES64L-G16RevC.01  3-Jul-2019

 -------------------------------------------------------
 # WB97XD/6-311G SCF=XQC FORCE nosym pop=full guess=read
 -------------------------------------------------------

 -----------
 MD Step 999
 -----------
 Symbolic Z-matrix:
 Charge =  0 Multiplicity = 1

                          Input orientation:
 ---------------------------------------------------------------------
 Center     Atomic      Atomic             Coordinates (Angstroms)
 Number     Number       Type             X           Y           Z
 ---------------------------------------------------------------------
      1          6           0       -0.335947   -0.581062    0.007258
      2          1           0        0.218901   -1.525624   -0.023241
      3          1           0       -1.417157   -0.585972   -0.024072
      4          6           0        0.332776    0.576703    0.005690
      5          1           0       -0.158166    1.567416   -0.027161
      6          1           0        1.447612    0.649537   -0.026403
 ---------------------------------------------------------------------

 SCF Done:  E(RwB97XD) =  -78.5554662151     A.U. after    8 cycles

 Alpha  occ. eigenvalues --  -10.29081 -10.28744  -0.86408  -0.67214  -0.55940
 Alpha  occ. eigenvalues --   -0.50970  -0.43601  -0.35709
 Alpha virt. eigenvalues --    0.07999   0.14093   0.16457   0.17007   0.24078
 Alpha virt. eigenvalues --    0.37393   0.39285   0.39957   0.46338   0.48876
 Alpha virt. eigenvalues --    0.49364   0.59114   0.66529   0.69127   0.77215

 Mulliken charges:
               1
     1  C   -0.339278
     2  H    0.173485
     3  H    0.175451
     4  C   -0.346312
     5  H    0.168762
     6  H    0.167892
 Sum of Mulliken charges =  -0.00000

 Dipole moment (field-independent basis, Debye):
    X=             -0.0016    Y=              0.0196    Z=             -0.1050  Tot=              0.1068
 Quadrupole moment (field-independent basis, Debye-Ang):
   XX=            -12.2076   YY=            -12.2172   ZZ=            -15.6674
   XY=              0.0197   XZ=             -0.0014   YZ=             -0.0044

 Normal termination of Gaussian 16 at Wed Jan 11 19:58:23 2023.
