 Gaussian 16, Revision C.01,
 Gaussian 16:  ES64L-G16RevC.01  3-Jul-2019

 -------------------------------------------------------
 # WB97XD/6-311G SCF=XQC FORCE nosym pop=full guess=read
 -------------------------------------------------------

 ------------
 MD Step 1000
 ------------
 Symbolic Z-matrix:
 Charge =  0 Multiplicity = 1

                          Input orientation:
 ---------------------------------------------------------------------
 Center     Atomic      Atomic             Coordinates (Angstroms)
 Number     Number       Type             X           Y           Z
 ---------------------------------------------------------------------
      1          6           0       -0.336139   -0.581810    0.005990
      2          1           0        0.219123   -1.528067   -0.017647
      3          1           0       -1.421107   -0.582987   -0.018225
      4          6           0        0.332986    0.576929    0.004084
      5          1           0       -0.159132    1.563652   -0.020088
      6          1           0        1.443339    0.650227   -0.019439
 ---------------------------------------------------------------------

 SCF Done:  E(RwB97XD) =  -78.5557461891     A.U. after    8 cycles

 Alpha  occ. eigenvalues --  -10.29013 -10.28798  -0.86386  -0.67232  -0.55955
 Alpha  occ. eigenvalues --   -0.50931  -0.43656  -0.35686
 Alpha virt. eigenvalues --    0.07992   0.14099   0.16478   0.17019   0.24080
 Alpha virt. eigenvalues --    0.37314   0.39353   0.39940   0.46411   0.48852
 Alpha virt. eigenvalues --    0.49379   0.59108   0.66572   0.69148   0.77286

 Mulliken charges:
               1
     1  C   -0.339406
     2  H    0.173450
     3  H    0.174990
     4  C   -0.346496
     5  H    0.169002
     6  H    0.168461
 Sum of Mulliken charges =  -0.00000

 Dipole moment (field-independent basis, Debye):
    X=              0.0017    Y=              0.0238    Z=             -0.0793  Tot=              0.0828
 Quadrupole moment (field-independent basis, Debye-Ang):
   XX=            -12.2023   YY=            -12.2166   ZZ=            -15.6700
   XY=              0.0129   XZ=              0.0001   YZ=             -0.0016

 Normal termination of Gaussian 16 at Wed Jan 11 18:48:10 2023.
