 Gaussian 16, Revision C.01,
 Gaussian 16:  ES64L-G16RevC.01  3-Jul-2019

 ------------------------------------------
 # BLYP/STO-3G SCF=XQC FORCE nosym pop=full
 ------------------------------------------

 ---------
 MD Step 0
 ---------
 Symbolic Z-matrix:
 Charge =  0 Multiplicity = 1

                          Input orientation:
 ---------------------------------------------------------------------
 Center     Atomic      Atomic             Coordinates (Angstroms)
 Number     Number       Type             X           Y           Z
 ---------------------------------------------------------------------
      1          6           0       -0.383295    0.732265    0.000000
      2          1           0        0.149869   -0.195439    0.000000
      3          1           0       -1.453295    0.732265    0.000000
      4          6           0        0.291979    1.907243    0.000000
      5          1           0       -0.241185    2.834948    0.000000
      6          1           0        1.361979    1.907243    0.000000
 ---------------------------------------------------------------------

 SCF Done:  E(RB-LYP) =  -77.5620598843     A.U. after    7 cycles

 Alpha  occ. eigenvalues --   -9.72924  -9.72855  -0.63477  -0.48200  -0.38291
 Alpha  occ. eigenvalues --   -0.31409  -0.27847  -0.16800
 Alpha virt. eigenvalues --    0.07605   0.37071   0.39650   0.40936   0.60078
 Alpha virt. eigenvalues --    0.60705

 Mulliken charges:
               1
     1  C   -0.162730
     2  H    0.081466
     3  H    0.081264
     4  C   -0.162730
     5  H    0.081466
     6  H    0.081264
 Sum of Mulliken charges =   0.00000

 Dipole moment (field-independent basis, Debye):
    X=             -0.0000    Y=             -0.0000    Z=              0.0000  Tot=              0.0000
 Quadrupole moment (field-independent basis, Debye-Ang):
   XX=            -11.6229   YY=            -11.7629   ZZ=            -13.4748
   XY=             -0.1385   XZ=             -0.0000   YZ=              0.0000

 Normal termination of Gaussian 16 at Sat Dec 31 14:51:02 2022.
