 Gaussian 16, Revision C.01,
 Gaussian 16:  ES64L-G16RevC.01  3-Jul-2019

 -------------------------------------------------------
 # WB97XD/6-311G SCF=XQC FORCE nosym pop=full guess=read
 -------------------------------------------------------

 ------------
 MD Step 1000
 ------------
 Symbolic Z-matrix:
 Charge =  0 Multiplicity = 1

                          Input orientation:
 ---------------------------------------------------------------------
 Center     Atomic      Atomic             Coordinates (Angstroms)
 Number     Number       Type             X           Y           Z
 ---------------------------------------------------------------------
      1          6           0       -0.336530   -0.582127    0.006966
      2          1           0        0.214897   -1.526737   -0.026252
      3          1           0       -1.418954   -0.589753   -0.027337
      4          6           0        0.332816    0.577337    0.005198
      5          1           0       -0.161612    1.564210   -0.029212
      6          1           0        1.444219    0.643651   -0.027840
 ---------------------------------------------------------------------

 SCF Done:  E(RwB97XD) =  -78.5557538166     A.U. after    8 cycles

 Alpha  occ. eigenvalues --  -10.29051 -10.28749  -0.86376  -0.67258  -0.55957
 Alpha  occ. eigenvalues --   -0.50939  -0.43684  -0.35672
 Alpha virt. eigenvalues --    0.07960   0.14108   0.16495   0.17039   0.24085
 Alpha virt. eigenvalues --    0.37443   0.39345   0.39843   0.46435   0.48883
 Alpha virt. eigenvalues --    0.49391   0.59103   0.66580   0.69181   0.77259

 Mulliken charges:
               1
     1  C   -0.339651
     2  H    0.173270
     3  H    0.174964
     4  C   -0.345996
     5  H    0.169106
     6  H    0.168308
 Sum of Mulliken charges =  -0.00000

 Dipole moment (field-independent basis, Debye):
    X=             -0.0001    Y=              0.0170    Z=             -0.1120  Tot=              0.1133
 Quadrupole moment (field-independent basis, Debye-Ang):
   XX=            -12.2044   YY=            -12.2151   ZZ=            -15.6661
   XY=              0.0148   XZ=              0.0010   YZ=             -0.0020

 Normal termination of Gaussian 16 at Wed Jan 11 16:33:45 2023.
