 Gaussian 16, Revision C.01,
 Gaussian 16:  ES64L-G16RevC.01  3-Jul-2019

 -------------------------------------------------------
 # WB97XD/6-311G SCF=XQC FORCE nosym pop=full guess=read
 -------------------------------------------------------

 -----------
 MD Step 999
 -----------
 Symbolic Z-matrix:
 Charge =  0 Multiplicity = 1

                          Input orientation:
 ---------------------------------------------------------------------
 Center     Atomic      Atomic             Coordinates (Angstroms)
 Number     Number       Type             X           Y           Z
 ---------------------------------------------------------------------
      1          6           0       -0.335078   -0.580718    0.005069
      2          1           0        0.204824   -1.531573   -0.014170
      3          1           0       -1.417030   -0.588686   -0.014970
      4          6           0        0.333412    0.576570    0.004078
      5          1           0       -0.172470    1.567531   -0.016752
      6          1           0        1.451612    0.649234   -0.016031
 ---------------------------------------------------------------------

 SCF Done:  E(RwB97XD) =  -78.5555876666     A.U. after    8 cycles

 Alpha  occ. eigenvalues --  -10.29189 -10.28714  -0.86394  -0.67157  -0.55875
 Alpha  occ. eigenvalues --   -0.50992  -0.43566  -0.35722
 Alpha virt. eigenvalues --    0.08023   0.14076   0.16409   0.16966   0.24065
 Alpha virt. eigenvalues --    0.37600   0.39195   0.39777   0.46249   0.48770
 Alpha virt. eigenvalues --    0.49351   0.59108   0.66467   0.69030   0.77114

 Mulliken charges:
               1
     1  C   -0.339676
     2  H    0.173583
     3  H    0.174719
     4  C   -0.345015
     5  H    0.168030
     6  H    0.168359
 Sum of Mulliken charges =  -0.00000

 Dipole moment (field-independent basis, Debye):
    X=             -0.0075    Y=              0.0088    Z=             -0.0663  Tot=              0.0673
 Quadrupole moment (field-independent basis, Debye-Ang):
   XX=            -12.2096   YY=            -12.2114   ZZ=            -15.6765
   XY=              0.0245   XZ=              0.0000   YZ=             -0.0028

 Normal termination of Gaussian 16 at Wed Jan 11 18:27:57 2023.
