 Gaussian 16, Revision C.01,
 Gaussian 16:  ES64L-G16RevC.01  3-Jul-2019

 -------------------------------------------------------
 # WB97XD/6-311G SCF=XQC FORCE nosym pop=full guess=read
 -------------------------------------------------------

 -----------
 MD Step 999
 -----------
 Symbolic Z-matrix:
 Charge =  0 Multiplicity = 1

                          Input orientation:
 ---------------------------------------------------------------------
 Center     Atomic      Atomic             Coordinates (Angstroms)
 Number     Number       Type             X           Y           Z
 ---------------------------------------------------------------------
      1          6           0       -0.337236   -0.583459    0.007350
      2          1           0        0.228466   -1.517288   -0.023844
      3          1           0       -1.419276   -0.575683   -0.025004
      4          6           0        0.331787    0.575092    0.004624
      5          1           0       -0.148750    1.574297   -0.027666
      6          1           0        1.444271    0.658143   -0.026396
 ---------------------------------------------------------------------

 SCF Done:  E(RwB97XD) =  -78.5549220220     A.U. after    8 cycles

 Alpha  occ. eigenvalues --  -10.29085 -10.28752  -0.86408  -0.67226  -0.55995
 Alpha  occ. eigenvalues --   -0.50930  -0.43583  -0.35697
 Alpha virt. eigenvalues --    0.07981   0.14088   0.16468   0.17005   0.24065
 Alpha virt. eigenvalues --    0.37056   0.39329   0.40229   0.46315   0.48949
 Alpha virt. eigenvalues --    0.49373   0.59105   0.66545   0.69177   0.77192

 Mulliken charges:
               1
     1  C   -0.338870
     2  H    0.174856
     3  H    0.176462
     4  C   -0.348430
     5  H    0.168290
     6  H    0.167691
 Sum of Mulliken charges =   0.00000

 Dipole moment (field-independent basis, Debye):
    X=              0.0083    Y=              0.0263    Z=             -0.1054  Tot=              0.1089
 Quadrupole moment (field-independent basis, Debye-Ang):
   XX=            -12.2078   YY=            -12.2216   ZZ=            -15.6697
   XY=              0.0164   XZ=              0.0007   YZ=             -0.0024

 Normal termination of Gaussian 16 at Wed Jan 11 18:36:29 2023.
