 Gaussian 16, Revision C.01,
 Gaussian 16:  ES64L-G16RevC.01  3-Jul-2019

 -------------------------------------------------------
 # WB97XD/6-311G SCF=XQC FORCE nosym pop=full guess=read
 -------------------------------------------------------

 -----------
 MD Step 999
 -----------
 Symbolic Z-matrix:
 Charge =  0 Multiplicity = 1

                          Input orientation:
 ---------------------------------------------------------------------
 Center     Atomic      Atomic             Coordinates (Angstroms)
 Number     Number       Type             X           Y           Z
 ---------------------------------------------------------------------
      1          6           0       -0.337178   -0.582306    0.007144
      2          1           0        0.227469   -1.524266   -0.024235
      3          1           0       -1.420939   -0.584458   -0.026754
      4          6           0        0.331889    0.576197    0.005220
      5          1           0       -0.150654    1.569837   -0.030385
      6          1           0        1.445535    0.650038   -0.027576
 ---------------------------------------------------------------------

 SCF Done:  E(RwB97XD) =  -78.5552057855     A.U. after    8 cycles

 Alpha  occ. eigenvalues --  -10.29068 -10.28821  -0.86387  -0.67199  -0.55931
 Alpha  occ. eigenvalues --   -0.50934  -0.43587  -0.35698
 Alpha virt. eigenvalues --    0.07977   0.14074   0.16445   0.16985   0.24068
 Alpha virt. eigenvalues --    0.37201   0.39284   0.40077   0.46337   0.48842
 Alpha virt. eigenvalues --    0.49369   0.59100   0.66523   0.69056   0.77222

 Mulliken charges:
               1
     1  C   -0.339086
     2  H    0.173593
     3  H    0.175846
     4  C   -0.347168
     5  H    0.169096
     6  H    0.167719
 Sum of Mulliken charges =  -0.00000

 Dipole moment (field-independent basis, Debye):
    X=              0.0039    Y=              0.0257    Z=             -0.1108  Tot=              0.1138
 Quadrupole moment (field-independent basis, Debye-Ang):
   XX=            -12.2077   YY=            -12.2225   ZZ=            -15.6741
   XY=              0.0164   XZ=              0.0012   YZ=             -0.0063

 Normal termination of Gaussian 16 at Wed Jan 11 18:47:41 2023.
