 Gaussian 16, Revision C.01,
 Gaussian 16:  ES64L-G16RevC.01  3-Jul-2019

 -------------------------------------------------------
 # WB97XD/6-311G SCF=XQC FORCE nosym pop=full guess=read
 -------------------------------------------------------

 ------------
 MD Step 1000
 ------------
 Symbolic Z-matrix:
 Charge =  0 Multiplicity = 1

                          Input orientation:
 ---------------------------------------------------------------------
 Center     Atomic      Atomic             Coordinates (Angstroms)
 Number     Number       Type             X           Y           Z
 ---------------------------------------------------------------------
      1          6           0       -0.337338   -0.583484    0.007889
      2          1           0        0.229811   -1.523256   -0.026886
      3          1           0       -1.420648   -0.572206   -0.027168
      4          6           0        0.332568    0.576211    0.005453
      5          1           0       -0.149440    1.566644   -0.030996
      6          1           0        1.440789    0.659151   -0.030267
 ---------------------------------------------------------------------

 SCF Done:  E(RwB97XD) =  -78.5550897183     A.U. after    8 cycles

 Alpha  occ. eigenvalues --  -10.28994 -10.28828  -0.86382  -0.67262  -0.56000
 Alpha  occ. eigenvalues --   -0.50886  -0.43652  -0.35667
 Alpha virt. eigenvalues --    0.07947   0.14091   0.16496   0.17027   0.24076
 Alpha virt. eigenvalues --    0.36986   0.39402   0.40198   0.46441   0.48934
 Alpha virt. eigenvalues --    0.49393   0.59097   0.66584   0.69188   0.77294

 Mulliken charges:
               1
     1  C   -0.339029
     2  H    0.174342
     3  H    0.176014
     4  C   -0.348479
     5  H    0.168867
     6  H    0.168284
 Sum of Mulliken charges =   0.00000

 Dipole moment (field-independent basis, Debye):
    X=              0.0072    Y=              0.0342    Z=             -0.1181  Tot=              0.1231
 Quadrupole moment (field-independent basis, Debye-Ang):
   XX=            -12.2036   YY=            -12.2247   ZZ=            -15.6696
   XY=              0.0080   XZ=             -0.0018   YZ=             -0.0042

 Normal termination of Gaussian 16 at Wed Jan 11 18:35:35 2023.
