 Gaussian 16, Revision C.01,
 Gaussian 16:  ES64L-G16RevC.01  3-Jul-2019

 ----------------------------------------------------------------------
 # WB97XD/6-311G SCF=XQC TD=(singlets,nstates=2,root=1) FORCE nosym pop
 =full guess=read
 ----------------------------------------------------------------------

 ------------
 MD Step 1000
 ------------
 Symbolic Z-matrix:
 Charge =  0 Multiplicity = 1

                          Input orientation:
 ---------------------------------------------------------------------
 Center     Atomic      Atomic             Coordinates (Angstroms)
 Number     Number       Type             X           Y           Z
 ---------------------------------------------------------------------
      1          6           0       -0.270037   -0.085467   -0.034393
      2          1           0        0.058079   -1.117727   -0.155723
      3          1           0       -1.363653    0.175889   -0.279780
      4          6           0        0.721863    0.892189    0.021801
      5          1           0        0.323322    1.901356   -0.260889
      6          1           0        1.787313    0.536266   -0.226573
 ---------------------------------------------------------------------

 SCF Done:  E(RwB97XD) =  -78.5321283638     A.U. after    1 cycles

 Excitation energies and oscillator strengths:

 Excited state symmetry could not be determined.
 Excited State   1:      Singlet-?Sym    7.2789 eV  170.33 nm  f=0.3155  <S**2>=0.000
       6 ->  9         0.13010
       8 ->  9         0.68969
       8 <-  9        -0.10456
 This state for optimization and/or second-order correction.
 Total Energy, E(TD-HF/TD-DFT) =  -78.2646326790
 Copying the excited state density for this state as the 1-particle RhoCI density.

 Excited state symmetry could not be determined.
 Excited State   2:      Singlet-?Sym    7.7844 eV  159.27 nm  f=0.0037  <S**2>=0.000
       7 ->  9         0.69791

 Alpha  occ. eigenvalues --  -10.30343 -10.30247  -0.85595  -0.66299  -0.55826
 Alpha  occ. eigenvalues --   -0.48673  -0.44122  -0.34946
 Alpha virt. eigenvalues --    0.05501   0.12960   0.15628   0.17210   0.23751
 Alpha virt. eigenvalues --    0.34718   0.37886   0.40005   0.47469   0.48852
 Alpha virt. eigenvalues --    0.50056   0.58462   0.64955   0.65695   0.71023

 Mulliken charges:
               1
     1  C   -0.357474
     2  H    0.175231
     3  H    0.176302
     4  C   -0.336554
     5  H    0.169711
     6  H    0.172784
 Sum of Mulliken charges =   0.00000

 Dipole moment (field-independent basis, Debye):
    X=             -0.0757    Y=             -0.1456    Z=             -0.7562  Tot=              0.7738
 Quadrupole moment (field-independent basis, Debye-Ang):
   XX=            -12.4271   YY=            -12.8674   ZZ=            -15.7211
   XY=             -0.6059   XZ=             -0.1457   YZ=             -0.4845

 Normal termination of Gaussian 16 at Thu Jan  5 17:58:01 2023.
