 Gaussian 16, Revision C.01,
 Gaussian 16:  ES64L-G16RevC.01  3-Jul-2019

 -------------------------------------------------------
 # WB97XD/6-311G SCF=XQC FORCE nosym pop=full guess=read
 -------------------------------------------------------

 ------------
 MD Step 1000
 ------------
 Symbolic Z-matrix:
 Charge =  0 Multiplicity = 1

                          Input orientation:
 ---------------------------------------------------------------------
 Center     Atomic      Atomic             Coordinates (Angstroms)
 Number     Number       Type             X           Y           Z
 ---------------------------------------------------------------------
      1          6           0       -0.335598   -0.581206    0.005752
      2          1           0        0.209477   -1.534145   -0.020078
      3          1           0       -1.423165   -0.591566   -0.020678
      4          6           0        0.333879    0.578096    0.004500
      5          1           0       -0.170455    1.560563   -0.021727
      6          1           0        1.443211    0.640786   -0.021091
 ---------------------------------------------------------------------

 SCF Done:  E(RwB97XD) =  -78.5560448587     A.U. after    8 cycles

 Alpha  occ. eigenvalues --  -10.29044 -10.28822  -0.86356  -0.67201  -0.55911
 Alpha  occ. eigenvalues --   -0.50915  -0.43683  -0.35674
 Alpha virt. eigenvalues --    0.07975   0.14089   0.16460   0.17011   0.24077
 Alpha virt. eigenvalues --    0.37522   0.39334   0.39680   0.46430   0.48761
 Alpha virt. eigenvalues --    0.49384   0.59097   0.66556   0.69066   0.77271

 Mulliken charges:
               1
     1  C   -0.340028
     2  H    0.172684
     3  H    0.173990
     4  C   -0.344954
     5  H    0.169159
     6  H    0.169150
 Sum of Mulliken charges =  -0.00000

 Dipole moment (field-independent basis, Debye):
    X=             -0.0010    Y=              0.0148    Z=             -0.0863  Tot=              0.0876
 Quadrupole moment (field-independent basis, Debye-Ang):
   XX=            -12.2004   YY=            -12.2193   ZZ=            -15.6757
   XY=              0.0093   XZ=              0.0007   YZ=             -0.0009

 Normal termination of Gaussian 16 at Wed Jan 11 18:31:45 2023.
