 Gaussian 16, Revision C.01,
 Gaussian 16:  ES64L-G16RevC.01  3-Jul-2019

 -------------------------------------------------------
 # WB97XD/6-311G SCF=XQC FORCE nosym pop=full guess=read
 -------------------------------------------------------

 ------------
 MD Step 1000
 ------------
 Symbolic Z-matrix:
 Charge =  0 Multiplicity = 1

                          Input orientation:
 ---------------------------------------------------------------------
 Center     Atomic      Atomic             Coordinates (Angstroms)
 Number     Number       Type             X           Y           Z
 ---------------------------------------------------------------------
      1          6           0       -0.337405   -0.582801    0.007280
      2          1           0        0.226646   -1.525328   -0.025119
      3          1           0       -1.421505   -0.584814   -0.027659
      4          6           0        0.332558    0.577355    0.005390
      5          1           0       -0.153063    1.566468   -0.031229
      6          1           0        1.444274    0.647139   -0.028386
 ---------------------------------------------------------------------

 SCF Done:  E(RwB97XD) =  -78.5553764837     A.U. after    8 cycles

 Alpha  occ. eigenvalues --  -10.29044 -10.28839  -0.86354  -0.67226  -0.55955
 Alpha  occ. eigenvalues --   -0.50882  -0.43666  -0.35661
 Alpha virt. eigenvalues --    0.07939   0.14078   0.16476   0.17012   0.24068
 Alpha virt. eigenvalues --    0.37188   0.39358   0.39978   0.46427   0.48837
 Alpha virt. eigenvalues --    0.49394   0.59086   0.66564   0.69098   0.77258

 Mulliken charges:
               1
     1  C   -0.339386
     2  H    0.173427
     3  H    0.175615
     4  C   -0.347068
     5  H    0.169393
     6  H    0.168019
 Sum of Mulliken charges =  -0.00000

 Dipole moment (field-independent basis, Debye):
    X=              0.0036    Y=              0.0259    Z=             -0.1144  Tot=              0.1173
 Quadrupole moment (field-independent basis, Debye-Ang):
   XX=            -12.2018   YY=            -12.2255   ZZ=            -15.6758
   XY=              0.0079   XZ=              0.0013   YZ=             -0.0063

 Normal termination of Gaussian 16 at Wed Jan 11 18:47:50 2023.
