 Gaussian 16, Revision C.01,
 Gaussian 16:  ES64L-G16RevC.01  3-Jul-2019

 -------------------------------------------------------
 # WB97XD/6-311G SCF=XQC FORCE nosym pop=full guess=read
 -------------------------------------------------------

 -----------
 MD Step 999
 -----------
 Symbolic Z-matrix:
 Charge =  0 Multiplicity = 1

                          Input orientation:
 ---------------------------------------------------------------------
 Center     Atomic      Atomic             Coordinates (Angstroms)
 Number     Number       Type             X           Y           Z
 ---------------------------------------------------------------------
      1          6           0       -0.335269   -0.579740    0.003547
      2          1           0        0.209965   -1.533325   -0.007963
      3          1           0       -1.418672   -0.595533   -0.008433
      4          6           0        0.332589    0.576825    0.002818
      5          1           0       -0.165788    1.563365   -0.009358
      6          1           0        1.447602    0.641396   -0.008926
 ---------------------------------------------------------------------

 SCF Done:  E(RwB97XD) =  -78.5560130537     A.U. after    8 cycles

 Alpha  occ. eigenvalues --  -10.29064 -10.28750  -0.86415  -0.67193  -0.55888
 Alpha  occ. eigenvalues --   -0.51017  -0.43588  -0.35733
 Alpha virt. eigenvalues --    0.08054   0.14099   0.16437   0.16989   0.24085
 Alpha virt. eigenvalues --    0.37642   0.39233   0.39783   0.46315   0.48789
 Alpha virt. eigenvalues --    0.49347   0.59127   0.66515   0.69071   0.77234

 Mulliken charges:
               1
     1  C   -0.339714
     2  H    0.172505
     3  H    0.174496
     4  C   -0.344700
     5  H    0.169132
     6  H    0.168280
 Sum of Mulliken charges =  -0.00000

 Dipole moment (field-independent basis, Debye):
    X=             -0.0059    Y=              0.0136    Z=             -0.0392  Tot=              0.0419
 Quadrupole moment (field-independent basis, Debye-Ang):
   XX=            -12.2079   YY=            -12.2068   ZZ=            -15.6684
   XY=              0.0255   XZ=              0.0001   YZ=             -0.0012

 Normal termination of Gaussian 16 at Wed Jan 11 18:45:28 2023.
