 Gaussian 16, Revision C.01,
 Gaussian 16:  ES64L-G16RevC.01  3-Jul-2019

 -------------------------------------------------------
 # WB97XD/6-311G SCF=XQC FORCE nosym pop=full guess=read
 -------------------------------------------------------

 -----------
 MD Step 999
 -----------
 Symbolic Z-matrix:
 Charge =  0 Multiplicity = 1

                          Input orientation:
 ---------------------------------------------------------------------
 Center     Atomic      Atomic             Coordinates (Angstroms)
 Number     Number       Type             X           Y           Z
 ---------------------------------------------------------------------
      1          6           0       -0.334656   -0.579273    0.003471
      2          1           0        0.203625   -1.534521   -0.007551
      3          1           0       -1.420769   -0.601701   -0.008044
      4          6           0        0.333398    0.577647    0.002744
      5          1           0       -0.174584    1.563116   -0.008746
      6          1           0        1.448103    0.633867   -0.008330
 ---------------------------------------------------------------------

 SCF Done:  E(RwB97XD) =  -78.5561418433     A.U. after    8 cycles

 Alpha  occ. eigenvalues --  -10.29108 -10.28751  -0.86397  -0.67157  -0.55868
 Alpha  occ. eigenvalues --   -0.50989  -0.43603  -0.35726
 Alpha virt. eigenvalues --    0.08047   0.14085   0.16418   0.16981   0.24080
 Alpha virt. eigenvalues --    0.37743   0.39240   0.39604   0.46317   0.48732
 Alpha virt. eigenvalues --    0.49349   0.59120   0.66492   0.69021   0.77197

 Mulliken charges:
               1
     1  C   -0.340218
     2  H    0.172245
     3  H    0.173879
     4  C   -0.343743
     5  H    0.169090
     6  H    0.168747
 Sum of Mulliken charges =   0.00000

 Dipole moment (field-independent basis, Debye):
    X=             -0.0061    Y=              0.0046    Z=             -0.0373  Tot=              0.0381
 Quadrupole moment (field-independent basis, Debye-Ang):
   XX=            -12.2045   YY=            -12.2128   ZZ=            -15.6740
   XY=              0.0195   XZ=              0.0004   YZ=             -0.0008

 Normal termination of Gaussian 16 at Wed Jan 11 18:34:35 2023.
