 Gaussian 16, Revision C.01,
 Gaussian 16:  ES64L-G16RevC.01  3-Jul-2019

 -------------------------------------------------------
 # WB97XD/6-311G SCF=XQC FORCE nosym pop=full guess=read
 -------------------------------------------------------

 -----------
 MD Step 999
 -----------
 Symbolic Z-matrix:
 Charge =  0 Multiplicity = 1

                          Input orientation:
 ---------------------------------------------------------------------
 Center     Atomic      Atomic             Coordinates (Angstroms)
 Number     Number       Type             X           Y           Z
 ---------------------------------------------------------------------
      1          6           0       -0.335636   -0.580423    0.004798
      2          1           0        0.215246   -1.528929   -0.013517
      3          1           0       -1.420050   -0.593690   -0.014173
      4          6           0        0.332682    0.576978    0.003836
      5          1           0       -0.160780    1.565702   -0.015837
      6          1           0        1.444888    0.642057   -0.015254
 ---------------------------------------------------------------------

 SCF Done:  E(RwB97XD) =  -78.5559566615     A.U. after    8 cycles

 Alpha  occ. eigenvalues --  -10.29041 -10.28763  -0.86405  -0.67216  -0.55915
 Alpha  occ. eigenvalues --   -0.50992  -0.43616  -0.35714
 Alpha virt. eigenvalues --    0.08029   0.14104   0.16459   0.17005   0.24086
 Alpha virt. eigenvalues --    0.37531   0.39278   0.39848   0.46354   0.48825
 Alpha virt. eigenvalues --    0.49360   0.59121   0.66542   0.69110   0.77259

 Mulliken charges:
               1
     1  C   -0.339581
     2  H    0.172772
     3  H    0.174774
     4  C   -0.345379
     5  H    0.169155
     6  H    0.168259
 Sum of Mulliken charges =   0.00000

 Dipole moment (field-independent basis, Debye):
    X=             -0.0004    Y=              0.0158    Z=             -0.0630  Tot=              0.0649
 Quadrupole moment (field-independent basis, Debye-Ang):
   XX=            -12.2055   YY=            -12.2100   ZZ=            -15.6675
   XY=              0.0227   XZ=             -0.0004   YZ=             -0.0024

 Normal termination of Gaussian 16 at Wed Jan 11 16:35:31 2023.
