 Gaussian 16, Revision C.01,
 Gaussian 16:  ES64L-G16RevC.01  3-Jul-2019

 -------------------------------------------------------
 # WB97XD/6-311G SCF=XQC FORCE nosym pop=full guess=read
 -------------------------------------------------------

 ------------
 MD Step 1000
 ------------
 Symbolic Z-matrix:
 Charge =  0 Multiplicity = 1

                          Input orientation:
 ---------------------------------------------------------------------
 Center     Atomic      Atomic             Coordinates (Angstroms)
 Number     Number       Type             X           Y           Z
 ---------------------------------------------------------------------
      1          6           0       -0.336060   -0.581399    0.009528
      2          1           0        0.222128   -1.529164   -0.035119
      3          1           0       -1.424886   -0.588006   -0.037252
      4          6           0        0.333318    0.577830    0.006946
      5          1           0       -0.158014    1.563005   -0.040192
      6          1           0        1.439344    0.642589   -0.037825
 ---------------------------------------------------------------------

 SCF Done:  E(RwB97XD) =  -78.5555414938     A.U. after    8 cycles

 Alpha  occ. eigenvalues --  -10.28990 -10.28872  -0.86375  -0.67213  -0.55924
 Alpha  occ. eigenvalues --   -0.50909  -0.43660  -0.35679
 Alpha virt. eigenvalues --    0.07938   0.14081   0.16460   0.17021   0.24088
 Alpha virt. eigenvalues --    0.37333   0.39347   0.39874   0.46462   0.48841
 Alpha virt. eigenvalues --    0.49384   0.59101   0.66540   0.69062   0.77323

 Mulliken charges:
               1
     1  C   -0.339407
     2  H    0.172664
     3  H    0.174497
     4  C   -0.346096
     5  H    0.169520
     6  H    0.168822
 Sum of Mulliken charges =  -0.00000

 Dipole moment (field-independent basis, Debye):
    X=              0.0066    Y=              0.0240    Z=             -0.1521  Tot=              0.1541
 Quadrupole moment (field-independent basis, Debye-Ang):
   XX=            -12.2056   YY=            -12.2307   ZZ=            -15.6688
   XY=              0.0057   XZ=              0.0016   YZ=             -0.0041

 Normal termination of Gaussian 16 at Wed Jan 11 18:43:57 2023.
