 Gaussian 16, Revision C.01,
 Gaussian 16:  ES64L-G16RevC.01  3-Jul-2019

 -------------------------------------------------------
 # WB97XD/6-311G SCF=XQC FORCE nosym pop=full guess=read
 -------------------------------------------------------

 ------------
 MD Step 1000
 ------------
 Symbolic Z-matrix:
 Charge =  0 Multiplicity = 1

                          Input orientation:
 ---------------------------------------------------------------------
 Center     Atomic      Atomic             Coordinates (Angstroms)
 Number     Number       Type             X           Y           Z
 ---------------------------------------------------------------------
      1          6           0       -0.336644   -0.582669    0.011825
      2          1           0        0.218483   -1.527780   -0.048690
      3          1           0       -1.422134   -0.581350   -0.049830
      4          6           0        0.333057    0.576684    0.008419
      5          1           0       -0.158590    1.563073   -0.054189
      6          1           0        1.440899    0.653301   -0.052598
 ---------------------------------------------------------------------

 SCF Done:  E(RwB97XD) =  -78.5549214280     A.U. after    8 cycles

 Alpha  occ. eigenvalues --  -10.29040 -10.28847  -0.86382  -0.67240  -0.55907
 Alpha  occ. eigenvalues --   -0.50948  -0.43614  -0.35679
 Alpha virt. eigenvalues --    0.07881   0.14085   0.16455   0.17018   0.24093
 Alpha virt. eigenvalues --    0.37299   0.39265   0.40030   0.46443   0.48921
 Alpha virt. eigenvalues --    0.49389   0.59096   0.66517   0.69041   0.77268

 Mulliken charges:
               1
     1  C   -0.339005
     2  H    0.173468
     3  H    0.174812
     4  C   -0.346868
     5  H    0.168861
     6  H    0.168731
 Sum of Mulliken charges =   0.00000

 Dipole moment (field-independent basis, Debye):
    X=              0.0045    Y=              0.0261    Z=             -0.2036  Tot=              0.2053
 Quadrupole moment (field-independent basis, Debye-Ang):
   XX=            -12.2176   YY=            -12.2325   ZZ=            -15.6615
   XY=              0.0153   XZ=             -0.0003   YZ=             -0.0049

 Normal termination of Gaussian 16 at Wed Jan 11 18:48:41 2023.
