 Gaussian 16, Revision C.01,
 Gaussian 16:  ES64L-G16RevC.01  3-Jul-2019

 -------------------------------------------------------
 # WB97XD/6-311G SCF=XQC FORCE nosym pop=full guess=read
 -------------------------------------------------------

 ------------
 MD Step 1000
 ------------
 Symbolic Z-matrix:
 Charge =  0 Multiplicity = 1

                          Input orientation:
 ---------------------------------------------------------------------
 Center     Atomic      Atomic             Coordinates (Angstroms)
 Number     Number       Type             X           Y           Z
 ---------------------------------------------------------------------
      1          6           0       -0.336967   -0.582933    0.009221
      2          1           0        0.220915   -1.524241   -0.032977
      3          1           0       -1.415533   -0.575639   -0.033694
      4          6           0        0.332550    0.575957    0.006081
      5          1           0       -0.159288    1.567782   -0.037578
      6          1           0        1.447886    0.656564   -0.036742
 ---------------------------------------------------------------------

 SCF Done:  E(RwB97XD) =  -78.5549105032     A.U. after    8 cycles

 Alpha  occ. eigenvalues --  -10.29120 -10.28743  -0.86398  -0.67203  -0.55982
 Alpha  occ. eigenvalues --   -0.50908  -0.43613  -0.35688
 Alpha virt. eigenvalues --    0.07948   0.14075   0.16457   0.17015   0.24067
 Alpha virt. eigenvalues --    0.37203   0.39334   0.40030   0.46350   0.48925
 Alpha virt. eigenvalues --    0.49379   0.59100   0.66524   0.69149   0.77171

 Mulliken charges:
               1
     1  C   -0.339042
     2  H    0.174347
     3  H    0.175959
     4  C   -0.347420
     5  H    0.168248
     6  H    0.167907
 Sum of Mulliken charges =  -0.00000

 Dipole moment (field-independent basis, Debye):
    X=             -0.0014    Y=              0.0239    Z=             -0.1424  Tot=              0.1444
 Quadrupole moment (field-independent basis, Debye-Ang):
   XX=            -12.2088   YY=            -12.2292   ZZ=            -15.6695
   XY=              0.0079   XZ=             -0.0008   YZ=             -0.0038

 Normal termination of Gaussian 16 at Wed Jan 11 18:46:37 2023.
