 Gaussian 16, Revision C.01,
 Gaussian 16:  ES64L-G16RevC.01  3-Jul-2019

 -------------------------------------------------------
 # WB97XD/6-311G SCF=XQC FORCE nosym pop=full guess=read
 -------------------------------------------------------

 ------------
 MD Step 1000
 ------------
 Symbolic Z-matrix:
 Charge =  0 Multiplicity = 1

                          Input orientation:
 ---------------------------------------------------------------------
 Center     Atomic      Atomic             Coordinates (Angstroms)
 Number     Number       Type             X           Y           Z
 ---------------------------------------------------------------------
      1          6           0       -0.336668   -0.582088    0.007897
      2          1           0        0.227161   -1.526595   -0.027267
      3          1           0       -1.425071   -0.585266   -0.029330
      4          6           0        0.332574    0.577103    0.005382
      5          1           0       -0.153791    1.567285   -0.031228
      6          1           0        1.442049    0.645526   -0.028853
 ---------------------------------------------------------------------

 SCF Done:  E(RwB97XD) =  -78.5554081311     A.U. after    8 cycles

 Alpha  occ. eigenvalues --  -10.29028 -10.28878  -0.86369  -0.67182  -0.55926
 Alpha  occ. eigenvalues --   -0.50890  -0.43629  -0.35684
 Alpha virt. eigenvalues --    0.07962   0.14066   0.16442   0.16993   0.24071
 Alpha virt. eigenvalues --    0.37204   0.39336   0.39962   0.46398   0.48800
 Alpha virt. eigenvalues --    0.49377   0.59095   0.66526   0.69027   0.77269

 Mulliken charges:
               1
     1  C   -0.339228
     2  H    0.173161
     3  H    0.175132
     4  C   -0.346753
     5  H    0.169381
     6  H    0.168306
 Sum of Mulliken charges =  -0.00000

 Dipole moment (field-independent basis, Debye):
    X=              0.0074    Y=              0.0261    Z=             -0.1189  Tot=              0.1219
 Quadrupole moment (field-independent basis, Debye-Ang):
   XX=            -12.2040   YY=            -12.2295   ZZ=            -15.6771
   XY=              0.0051   XZ=              0.0027   YZ=             -0.0020

 Normal termination of Gaussian 16 at Wed Jan 11 16:59:30 2023.
