 Gaussian 16, Revision C.01,
 Gaussian 16:  ES64L-G16RevC.01  3-Jul-2019

 ------------------------------------------
 # BLYP/STO-3G SCF=XQC FORCE nosym pop=full
 ------------------------------------------

 ---------
 MD Step 4
 ---------
 Symbolic Z-matrix:
 Charge =  0 Multiplicity = 1

                          Input orientation:
 ---------------------------------------------------------------------
 Center     Atomic      Atomic             Coordinates (Angstroms)
 Number     Number       Type             X           Y           Z
 ---------------------------------------------------------------------
      1          3           0        0.006104    0.006103    0.024362
      2          1           0        0.015842    0.015842    2.889986
 ---------------------------------------------------------------------

 SCF Done:  E(RB-LYP) =  -7.84959979500     A.U. after   15 cycles

 Alpha  occ. eigenvalues --   -1.80423  -0.09980
 Alpha virt. eigenvalues --   -0.05081   0.01591   0.01591   0.08299

 Mulliken charges:
               1
     1  Li   0.043419
     2  H   -0.043419
 Sum of Mulliken charges =  -0.00000

 Dipole moment (field-independent basis, Debye):
    X=             -0.0142    Y=             -0.0142    Z=             -4.1890  Tot=              4.1890
 Quadrupole moment (field-independent basis, Debye-Ang):
   XX=             -6.0532   YY=             -6.0532   ZZ=            -10.6345
   XY=             -0.0002   XZ=             -0.0408   YZ=             -0.0408

 Normal termination of Gaussian 16 at Thu Dec 29 00:17:06 2022.
