 Gaussian 16, Revision C.01,
 Gaussian 16:  ES64L-G16RevC.01  3-Jul-2019

 ------------------------------------------
 # BLYP/STO-3G SCF=XQC FORCE nosym pop=full
 ------------------------------------------

 -----------
 MD Step 999
 -----------
 Symbolic Z-matrix:
 Charge =  0 Multiplicity = 1

                          Input orientation:
 ---------------------------------------------------------------------
 Center     Atomic      Atomic             Coordinates (Angstroms)
 Number     Number       Type             X           Y           Z
 ---------------------------------------------------------------------
      1          3           0        2.057847    1.828409    2.284877
      2          1           0        0.279387    1.859669    1.713671
 ---------------------------------------------------------------------

 SCF Done:  E(RB-LYP) =  -7.93129364100     A.U. after   10 cycles

 Alpha  occ. eigenvalues --   -1.78178  -0.12677
 Alpha virt. eigenvalues --   -0.03076   0.03111   0.03111   0.26291

 Mulliken charges:
               1
     1  Li   0.003493
     2  H   -0.003493
 Sum of Mulliken charges =   0.00000

 Dipole moment (field-independent basis, Debye):
    X=              4.4612    Y=             -0.0784    Z=              1.4328  Tot=              4.6863
 Quadrupole moment (field-independent basis, Debye-Ang):
   XX=              9.7921   YY=             -5.8359   ZZ=              0.6879
   XY=              8.0485   XZ=             12.1717   YZ=              2.4577

 Normal termination of Gaussian 16 at Thu Dec 29 05:02:36 2022.
