 Gaussian 16, Revision C.01,
 Gaussian 16:  ES64L-G16RevC.01  3-Jul-2019

 -------------------------------------------------------
 # WB97XD/6-311G SCF=XQC FORCE nosym pop=full guess=read
 -------------------------------------------------------

 ------------
 MD Step 1000
 ------------
 Symbolic Z-matrix:
 Charge =  0 Multiplicity = 1

                          Input orientation:
 ---------------------------------------------------------------------
 Center     Atomic      Atomic             Coordinates (Angstroms)
 Number     Number       Type             X           Y           Z
 ---------------------------------------------------------------------
      1          6           0       -0.336853   -0.582169    0.004582
      2          1           0        0.222618   -1.528219   -0.013221
      3          1           0       -1.422618   -0.588702   -0.014027
      4          6           0        0.332736    0.577632    0.003398
      5          1           0       -0.156616    1.565431   -0.015384
      6          1           0        1.443541    0.643417   -0.014608
 ---------------------------------------------------------------------

 SCF Done:  E(RwB97XD) =  -78.5557981189     A.U. after    8 cycles

 Alpha  occ. eigenvalues --  -10.29028 -10.28836  -0.86353  -0.67221  -0.55941
 Alpha  occ. eigenvalues --   -0.50896  -0.43677  -0.35667
 Alpha virt. eigenvalues --    0.07974   0.14086   0.16476   0.17008   0.24070
 Alpha virt. eigenvalues --    0.37299   0.39355   0.39882   0.46422   0.48789
 Alpha virt. eigenvalues --    0.49390   0.59092   0.66574   0.69097   0.77278

 Mulliken charges:
               1
     1  C   -0.339621
     2  H    0.173048
     3  H    0.175128
     4  C   -0.346332
     5  H    0.169499
     6  H    0.168278
 Sum of Mulliken charges =  -0.00000

 Dipole moment (field-independent basis, Debye):
    X=              0.0029    Y=              0.0227    Z=             -0.0608  Tot=              0.0649
 Quadrupole moment (field-independent basis, Debye-Ang):
   XX=            -12.1994   YY=            -12.2178   ZZ=            -15.6776
   XY=              0.0097   XZ=              0.0003   YZ=             -0.0017

 Normal termination of Gaussian 16 at Wed Jan 11 18:49:53 2023.
