 Gaussian 16, Revision C.01,
 Gaussian 16:  ES64L-G16RevC.01  3-Jul-2019

 -------------------------------------------------------
 # WB97XD/6-311G SCF=XQC FORCE nosym pop=full guess=read
 -------------------------------------------------------

 ------------
 MD Step 1000
 ------------
 Symbolic Z-matrix:
 Charge =  0 Multiplicity = 1

                          Input orientation:
 ---------------------------------------------------------------------
 Center     Atomic      Atomic             Coordinates (Angstroms)
 Number     Number       Type             X           Y           Z
 ---------------------------------------------------------------------
      1          6           0       -0.335413   -0.580923    0.004705
      2          1           0        0.210511   -1.536824   -0.015243
      3          1           0       -1.426717   -0.592433   -0.015906
      4          6           0        0.333826    0.578351    0.003866
      5          1           0       -0.166868    1.555345   -0.017434
      6          1           0        1.438692    0.641261   -0.016834
 ---------------------------------------------------------------------

 SCF Done:  E(RwB97XD) =  -78.5562941034     A.U. after    8 cycles

 Alpha  occ. eigenvalues --  -10.28951 -10.28858  -0.86360  -0.67248  -0.55912
 Alpha  occ. eigenvalues --   -0.50939  -0.43705  -0.35672
 Alpha virt. eigenvalues --    0.07986   0.14110   0.16487   0.17026   0.24091
 Alpha virt. eigenvalues --    0.37523   0.39347   0.39732   0.46483   0.48779
 Alpha virt. eigenvalues --    0.49388   0.59104   0.66589   0.69113   0.77382

 Mulliken charges:
               1
     1  C   -0.340090
     2  H    0.172243
     3  H    0.173474
     4  C   -0.344946
     5  H    0.169804
     6  H    0.169514
 Sum of Mulliken charges =  -0.00000

 Dipole moment (field-independent basis, Debye):
    X=              0.0015    Y=              0.0208    Z=             -0.0684  Tot=              0.0715
 Quadrupole moment (field-independent basis, Debye-Ang):
   XX=            -12.2000   YY=            -12.2113   ZZ=            -15.6705
   XY=              0.0142   XZ=             -0.0002   YZ=             -0.0025

 Normal termination of Gaussian 16 at Wed Jan 11 18:43:51 2023.
