 Gaussian 16, Revision C.01,
 Gaussian 16:  ES64L-G16RevC.01  3-Jul-2019

 -------------------------------------------------------
 # WB97XD/6-311G SCF=XQC FORCE nosym pop=full guess=read
 -------------------------------------------------------

 ------------
 MD Step 1000
 ------------
 Symbolic Z-matrix:
 Charge =  0 Multiplicity = 1

                          Input orientation:
 ---------------------------------------------------------------------
 Center     Atomic      Atomic             Coordinates (Angstroms)
 Number     Number       Type             X           Y           Z
 ---------------------------------------------------------------------
      1          6           0       -0.335355   -0.581286    0.005442
      2          1           0        0.204972   -1.532837   -0.016532
      3          1           0       -1.418568   -0.588760   -0.017344
      4          6           0        0.334085    0.577764    0.004439
      5          1           0       -0.173908    1.563846   -0.018908
      6          1           0        1.449424    0.646513   -0.018168
 ---------------------------------------------------------------------

 SCF Done:  E(RwB97XD) =  -78.5557846465     A.U. after    8 cycles

 Alpha  occ. eigenvalues --  -10.29150 -10.28752  -0.86358  -0.67186  -0.55897
 Alpha  occ. eigenvalues --   -0.50936  -0.43644  -0.35682
 Alpha virt. eigenvalues --    0.07981   0.14081   0.16441   0.16991   0.24065
 Alpha virt. eigenvalues --    0.37557   0.39270   0.39699   0.46349   0.48758
 Alpha virt. eigenvalues --    0.49378   0.59092   0.66519   0.69057   0.77162

 Mulliken charges:
               1
     1  C   -0.339975
     2  H    0.173380
     3  H    0.174440
     4  C   -0.345026
     5  H    0.168435
     6  H    0.168747
 Sum of Mulliken charges =  -0.00000

 Dipole moment (field-independent basis, Debye):
    X=             -0.0066    Y=              0.0104    Z=             -0.0751  Tot=              0.0761
 Quadrupole moment (field-independent basis, Debye-Ang):
   XX=            -12.2038   YY=            -12.2152   ZZ=            -15.6787
   XY=              0.0158   XZ=              0.0003   YZ=             -0.0024

 Normal termination of Gaussian 16 at Wed Jan 11 18:29:37 2023.
