 Gaussian 16, Revision C.01,
 Gaussian 16:  ES64L-G16RevC.01  3-Jul-2019

 -------------------------------------------------------
 # WB97XD/6-311G SCF=XQC FORCE nosym pop=full guess=read
 -------------------------------------------------------

 ------------
 MD Step 1000
 ------------
 Symbolic Z-matrix:
 Charge =  0 Multiplicity = 1

                          Input orientation:
 ---------------------------------------------------------------------
 Center     Atomic      Atomic             Coordinates (Angstroms)
 Number     Number       Type             X           Y           Z
 ---------------------------------------------------------------------
      1          6           0       -0.336071   -0.580787    0.006734
      2          1           0        0.214966   -1.533448   -0.024598
      3          1           0       -1.421650   -0.593922   -0.025959
      4          6           0        0.333028    0.577670    0.005293
      5          1           0       -0.162965    1.561963   -0.028082
      6          1           0        1.443962    0.640597   -0.026617
 ---------------------------------------------------------------------

 SCF Done:  E(RwB97XD) =  -78.5558470915     A.U. after    8 cycles

 Alpha  occ. eigenvalues --  -10.29032 -10.28830  -0.86375  -0.67209  -0.55894
 Alpha  occ. eigenvalues --   -0.50956  -0.43639  -0.35693
 Alpha virt. eigenvalues --    0.07982   0.14089   0.16453   0.17001   0.24082
 Alpha virt. eigenvalues --    0.37512   0.39280   0.39791   0.46401   0.48783
 Alpha virt. eigenvalues --    0.49373   0.59105   0.66538   0.69043   0.77279

 Mulliken charges:
               1
     1  C   -0.339736
     2  H    0.172352
     3  H    0.174467
     4  C   -0.345198
     5  H    0.169495
     6  H    0.168621
 Sum of Mulliken charges =   0.00000

 Dipole moment (field-independent basis, Debye):
    X=             -0.0015    Y=              0.0185    Z=             -0.1071  Tot=              0.1087
 Quadrupole moment (field-independent basis, Debye-Ang):
   XX=            -12.2056   YY=            -12.2174   ZZ=            -15.6715
   XY=              0.0170   XZ=              0.0006   YZ=             -0.0032

 Normal termination of Gaussian 16 at Wed Jan 11 18:49:39 2023.
