 Gaussian 16, Revision C.01,
 Gaussian 16:  ES64L-G16RevC.01  3-Jul-2019

 -------------------------------------------------------
 # WB97XD/6-311G SCF=XQC FORCE nosym pop=full guess=read
 -------------------------------------------------------

 ------------
 MD Step 1000
 ------------
 Symbolic Z-matrix:
 Charge =  0 Multiplicity = 1

                          Input orientation:
 ---------------------------------------------------------------------
 Center     Atomic      Atomic             Coordinates (Angstroms)
 Number     Number       Type             X           Y           Z
 ---------------------------------------------------------------------
      1          6           0       -0.337015   -0.582670    0.007169
      2          1           0        0.226586   -1.523699   -0.023950
      3          1           0       -1.422230   -0.584628   -0.026119
      4          6           0        0.332988    0.577650    0.005337
      5          1           0       -0.152141    1.566200   -0.028334
      6          1           0        1.440258    0.646436   -0.026146
 ---------------------------------------------------------------------

 SCF Done:  E(RwB97XD) =  -78.5555959126     A.U. after    8 cycles

 Alpha  occ. eigenvalues --  -10.28989 -10.28826  -0.86360  -0.67268  -0.55981
 Alpha  occ. eigenvalues --   -0.50886  -0.43704  -0.35653
 Alpha virt. eigenvalues --    0.07942   0.14099   0.16508   0.17040   0.24081
 Alpha virt. eigenvalues --    0.37189   0.39408   0.39985   0.46482   0.48883
 Alpha virt. eigenvalues --    0.49403   0.59093   0.66603   0.69181   0.77315

 Mulliken charges:
               1
     1  C   -0.339427
     2  H    0.173415
     3  H    0.175424
     4  C   -0.347187
     5  H    0.169409
     6  H    0.168367
 Sum of Mulliken charges =  -0.00000

 Dipole moment (field-independent basis, Debye):
    X=              0.0075    Y=              0.0260    Z=             -0.1077  Tot=              0.1111
 Quadrupole moment (field-independent basis, Debye-Ang):
   XX=            -12.1989   YY=            -12.2223   ZZ=            -15.6702
   XY=              0.0084   XZ=              0.0018   YZ=             -0.0037

 Normal termination of Gaussian 16 at Wed Jan 11 18:32:10 2023.
