 Gaussian 16, Revision C.01,
 Gaussian 16:  ES64L-G16RevC.01  3-Jul-2019

 -------------------------------------------------------
 # WB97XD/6-311G SCF=XQC FORCE nosym pop=full guess=read
 -------------------------------------------------------

 -----------
 MD Step 999
 -----------
 Symbolic Z-matrix:
 Charge =  0 Multiplicity = 1

                          Input orientation:
 ---------------------------------------------------------------------
 Center     Atomic      Atomic             Coordinates (Angstroms)
 Number     Number       Type             X           Y           Z
 ---------------------------------------------------------------------
      1          6           0       -0.335260   -0.580096    0.006094
      2          1           0        0.213505   -1.532344   -0.017325
      3          1           0       -1.422431   -0.590986   -0.019852
      4          6           0        0.332480    0.576386    0.004071
      5          1           0       -0.163075    1.561868   -0.023463
      6          1           0        1.444459    0.645020   -0.021132
 ---------------------------------------------------------------------

 SCF Done:  E(RwB97XD) =  -78.5559015469     A.U. after    8 cycles

 Alpha  occ. eigenvalues --  -10.29015 -10.28799  -0.86423  -0.67188  -0.55893
 Alpha  occ. eigenvalues --   -0.51006  -0.43581  -0.35736
 Alpha virt. eigenvalues --    0.08043   0.14096   0.16433   0.16992   0.24090
 Alpha virt. eigenvalues --    0.37541   0.39254   0.39859   0.46338   0.48810
 Alpha virt. eigenvalues --    0.49345   0.59130   0.66514   0.69058   0.77272

 Mulliken charges:
               1
     1  C   -0.339435
     2  H    0.172672
     3  H    0.174292
     4  C   -0.345178
     5  H    0.169168
     6  H    0.168480
 Sum of Mulliken charges =   0.00000

 Dipole moment (field-independent basis, Debye):
    X=             -0.0012    Y=              0.0189    Z=             -0.0844  Tot=              0.0865
 Quadrupole moment (field-independent basis, Debye-Ang):
   XX=            -12.2088   YY=            -12.2133   ZZ=            -15.6664
   XY=              0.0215   XZ=              0.0011   YZ=             -0.0066

 Normal termination of Gaussian 16 at Wed Jan 11 18:31:01 2023.
