 Gaussian 16, Revision C.01,
 Gaussian 16:  ES64L-G16RevC.01  3-Jul-2019

 -------------------------------------------------------
 # WB97XD/6-311G SCF=XQC FORCE nosym pop=full guess=read
 -------------------------------------------------------

 ------------
 MD Step 1000
 ------------
 Symbolic Z-matrix:
 Charge =  0 Multiplicity = 1

                          Input orientation:
 ---------------------------------------------------------------------
 Center     Atomic      Atomic             Coordinates (Angstroms)
 Number     Number       Type             X           Y           Z
 ---------------------------------------------------------------------
      1          6           0       -0.335774   -0.581265    0.008044
      2          1           0        0.210645   -1.530487   -0.031936
      3          1           0       -1.421018   -0.593840   -0.033131
      4          6           0        0.333513    0.577996    0.006904
      5          1           0       -0.167032    1.564469   -0.036339
      6          1           0        1.446111    0.640558   -0.034963
 ---------------------------------------------------------------------

 SCF Done:  E(RwB97XD) =  -78.5556322651     A.U. after    8 cycles

 Alpha  occ. eigenvalues --  -10.29106 -10.28796  -0.86362  -0.67199  -0.55888
 Alpha  occ. eigenvalues --   -0.50944  -0.43641  -0.35681
 Alpha virt. eigenvalues --    0.07945   0.14082   0.16444   0.17000   0.24077
 Alpha virt. eigenvalues --    0.37544   0.39262   0.39742   0.46390   0.48793
 Alpha virt. eigenvalues --    0.49381   0.59094   0.66518   0.69025   0.77210

 Mulliken charges:
               1
     1  C   -0.339852
     2  H    0.172890
     3  H    0.174428
     4  C   -0.345091
     5  H    0.169065
     6  H    0.168559
 Sum of Mulliken charges =  -0.00000

 Dipole moment (field-independent basis, Debye):
    X=             -0.0018    Y=              0.0122    Z=             -0.1376  Tot=              0.1382
 Quadrupole moment (field-independent basis, Debye-Ang):
   XX=            -12.2093   YY=            -12.2207   ZZ=            -15.6728
   XY=              0.0149   XZ=             -0.0008   YZ=             -0.0053

 Normal termination of Gaussian 16 at Wed Jan 11 18:39:25 2023.
