 Gaussian 16, Revision C.01,
 Gaussian 16:  ES64L-G16RevC.01  3-Jul-2019

 -------------------------------------------------------
 # WB97XD/6-311G SCF=XQC FORCE nosym pop=full guess=read
 -------------------------------------------------------

 -----------
 MD Step 999
 -----------
 Symbolic Z-matrix:
 Charge =  0 Multiplicity = 1

                          Input orientation:
 ---------------------------------------------------------------------
 Center     Atomic      Atomic             Coordinates (Angstroms)
 Number     Number       Type             X           Y           Z
 ---------------------------------------------------------------------
      1          6           0       -0.336182   -0.583065    0.005628
      2          1           0        0.220878   -1.530337   -0.016992
      3          1           0       -1.426356   -0.573307   -0.017477
      4          6           0        0.333251    0.576274    0.003793
      5          1           0       -0.159174    1.566831   -0.018367
      6          1           0        1.441023    0.659167   -0.017976
 ---------------------------------------------------------------------

 SCF Done:  E(RwB97XD) =  -78.5554100207     A.U. after    8 cycles

 Alpha  occ. eigenvalues --  -10.29042 -10.28892  -0.86356  -0.67182  -0.55912
 Alpha  occ. eigenvalues --   -0.50895  -0.43611  -0.35681
 Alpha virt. eigenvalues --    0.07976   0.14068   0.16435   0.16969   0.24060
 Alpha virt. eigenvalues --    0.37113   0.39308   0.40060   0.46363   0.48764
 Alpha virt. eigenvalues --    0.49377   0.59087   0.66531   0.69008   0.77248

 Mulliken charges:
               1
     1  C   -0.339211
     2  H    0.174170
     3  H    0.174887
     4  C   -0.347281
     5  H    0.168457
     6  H    0.168978
 Sum of Mulliken charges =  -0.00000

 Dipole moment (field-independent basis, Debye):
    X=              0.0075    Y=              0.0290    Z=             -0.0744  Tot=              0.0802
 Quadrupole moment (field-independent basis, Debye-Ang):
   XX=            -12.2066   YY=            -12.2193   ZZ=            -15.6832
   XY=              0.0089   XZ=              0.0010   YZ=             -0.0001

 Normal termination of Gaussian 16 at Wed Jan 11 18:47:22 2023.
