 Gaussian 16, Revision C.01,
 Gaussian 16:  ES64L-G16RevC.01  3-Jul-2019

 -------------------------------------------------------
 # WB97XD/6-311G SCF=XQC FORCE nosym pop=full guess=read
 -------------------------------------------------------

 ------------
 MD Step 1000
 ------------
 Symbolic Z-matrix:
 Charge =  0 Multiplicity = 1

                          Input orientation:
 ---------------------------------------------------------------------
 Center     Atomic      Atomic             Coordinates (Angstroms)
 Number     Number       Type             X           Y           Z
 ---------------------------------------------------------------------
      1          6           0       -0.335909   -0.581341    0.005431
      2          1           0        0.211063   -1.529472   -0.018373
      3          1           0       -1.420627   -0.595788   -0.019126
      4          6           0        0.333642    0.578293    0.004595
      5          1           0       -0.167893    1.565787   -0.020912
      6          1           0        1.445518    0.636838   -0.020004
 ---------------------------------------------------------------------

 SCF Done:  E(RwB97XD) =  -78.5559592018     A.U. after    8 cycles

 Alpha  occ. eigenvalues --  -10.29100 -10.28771  -0.86351  -0.67208  -0.55919
 Alpha  occ. eigenvalues --   -0.50917  -0.43684  -0.35669
 Alpha virt. eigenvalues --    0.07969   0.14089   0.16465   0.17013   0.24072
 Alpha virt. eigenvalues --    0.37540   0.39325   0.39674   0.46407   0.48777
 Alpha virt. eigenvalues --    0.49388   0.59093   0.66553   0.69090   0.77215

 Mulliken charges:
               1
     1  C   -0.340084
     2  H    0.172846
     3  H    0.174541
     4  C   -0.345018
     5  H    0.169093
     6  H    0.168622
 Sum of Mulliken charges =  -0.00000

 Dipole moment (field-independent basis, Debye):
    X=             -0.0009    Y=              0.0097    Z=             -0.0816  Tot=              0.0822
 Quadrupole moment (field-independent basis, Debye-Ang):
   XX=            -12.2008   YY=            -12.2170   ZZ=            -15.6763
   XY=              0.0113   XZ=             -0.0002   YZ=             -0.0027

 Normal termination of Gaussian 16 at Wed Jan 11 18:38:01 2023.
