 Gaussian 16, Revision C.01,
 Gaussian 16:  ES64L-G16RevC.01  3-Jul-2019

 -------------------------------------------------------
 # WB97XD/6-311G SCF=XQC FORCE nosym pop=full guess=read
 -------------------------------------------------------

 ------------
 MD Step 1000
 ------------
 Symbolic Z-matrix:
 Charge =  0 Multiplicity = 1

                          Input orientation:
 ---------------------------------------------------------------------
 Center     Atomic      Atomic             Coordinates (Angstroms)
 Number     Number       Type             X           Y           Z
 ---------------------------------------------------------------------
      1          6           0       -0.337639   -0.584720    0.009462
      2          1           0        0.229571   -1.519019   -0.034389
      3          1           0       -1.421459   -0.567731   -0.035016
      4          6           0        0.332379    0.575390    0.005763
      5          1           0       -0.151847    1.572113   -0.038218
      6          1           0        1.442922    0.662318   -0.037284
 ---------------------------------------------------------------------

 SCF Done:  E(RwB97XD) =  -78.5545613483     A.U. after    8 cycles

 Alpha  occ. eigenvalues --  -10.29093 -10.28819  -0.86376  -0.67204  -0.56001
 Alpha  occ. eigenvalues --   -0.50851  -0.43610  -0.35668
 Alpha virt. eigenvalues --    0.07918   0.14063   0.16458   0.17002   0.24056
 Alpha virt. eigenvalues --    0.36895   0.39375   0.40225   0.46365   0.48930
 Alpha virt. eigenvalues --    0.49392   0.59083   0.66537   0.69121   0.77183

 Mulliken charges:
               1
     1  C   -0.338831
     2  H    0.175219
     3  H    0.176347
     4  C   -0.349033
     5  H    0.168128
     6  H    0.168171
 Sum of Mulliken charges =  -0.00000

 Dipole moment (field-independent basis, Debye):
    X=              0.0099    Y=              0.0311    Z=             -0.1459  Tot=              0.1495
 Quadrupole moment (field-independent basis, Debye-Ang):
   XX=            -12.2077   YY=            -12.2360   ZZ=            -15.6760
   XY=              0.0015   XZ=              0.0004   YZ=             -0.0018

 Normal termination of Gaussian 16 at Wed Jan 11 19:43:45 2023.
