 Gaussian 16, Revision C.01,
 Gaussian 16:  ES64L-G16RevC.01  3-Jul-2019

 -------------------------------------------------------
 # WB97XD/6-311G SCF=XQC FORCE nosym pop=full guess=read
 -------------------------------------------------------

 ------------
 MD Step 1000
 ------------
 Symbolic Z-matrix:
 Charge =  0 Multiplicity = 1

                          Input orientation:
 ---------------------------------------------------------------------
 Center     Atomic      Atomic             Coordinates (Angstroms)
 Number     Number       Type             X           Y           Z
 ---------------------------------------------------------------------
      1          6           0       -0.335710   -0.580394    0.008139
      2          1           0        0.216711   -1.533424   -0.029893
      3          1           0       -1.424807   -0.597135   -0.032448
      4          6           0        0.333926    0.579128    0.006851
      5          1           0       -0.163092    1.558913   -0.035777
      6          1           0        1.439726    0.634013   -0.033225
 ---------------------------------------------------------------------

 SCF Done:  E(RwB97XD) =  -78.5559485177     A.U. after    8 cycles

 Alpha  occ. eigenvalues --  -10.28976 -10.28870  -0.86359  -0.67225  -0.55914
 Alpha  occ. eigenvalues --   -0.50912  -0.43700  -0.35668
 Alpha virt. eigenvalues --    0.07945   0.14090   0.16474   0.17030   0.24091
 Alpha virt. eigenvalues --    0.37509   0.39352   0.39699   0.46495   0.48799
 Alpha virt. eigenvalues --    0.49390   0.59099   0.66562   0.69073   0.77354

 Mulliken charges:
               1
     1  C   -0.340055
     2  H    0.171818
     3  H    0.173967
     4  C   -0.344895
     5  H    0.170056
     6  H    0.169109
 Sum of Mulliken charges =  -0.00000

 Dipole moment (field-independent basis, Debye):
    X=              0.0024    Y=              0.0185    Z=             -0.1338  Tot=              0.1351
 Quadrupole moment (field-independent basis, Debye-Ang):
   XX=            -12.2013   YY=            -12.2258   ZZ=            -15.6697
   XY=              0.0074   XZ=              0.0006   YZ=             -0.0068

 Normal termination of Gaussian 16 at Wed Jan 11 18:35:37 2023.
