 Gaussian 16, Revision C.01,
 Gaussian 16:  ES64L-G16RevC.01  3-Jul-2019

 -------------------------------------------------------
 # WB97XD/6-311G SCF=XQC FORCE nosym pop=full guess=read
 -------------------------------------------------------

 -----------
 MD Step 999
 -----------
 Symbolic Z-matrix:
 Charge =  0 Multiplicity = 1

                          Input orientation:
 ---------------------------------------------------------------------
 Center     Atomic      Atomic             Coordinates (Angstroms)
 Number     Number       Type             X           Y           Z
 ---------------------------------------------------------------------
      1          6           0       -0.335841   -0.581292    0.005137
      2          1           0        0.214953   -1.527666   -0.015157
      3          1           0       -1.418980   -0.586077   -0.015224
      4          6           0        0.332905    0.576335    0.004041
      5          1           0       -0.161507    1.567413   -0.017045
      6          1           0        1.445430    0.650306   -0.017025
 ---------------------------------------------------------------------

 SCF Done:  E(RwB97XD) =  -78.5557156680     A.U. after    8 cycles

 Alpha  occ. eigenvalues --  -10.29073 -10.28749  -0.86401  -0.67217  -0.55926
 Alpha  occ. eigenvalues --   -0.50983  -0.43605  -0.35709
 Alpha virt. eigenvalues --    0.08017   0.14101   0.16457   0.17000   0.24078
 Alpha virt. eigenvalues --    0.37432   0.39275   0.39935   0.46332   0.48845
 Alpha virt. eigenvalues --    0.49363   0.59114   0.66539   0.69121   0.77223

 Mulliken charges:
               1
     1  C   -0.339390
     2  H    0.173528
     3  H    0.175100
     4  C   -0.346077
     5  H    0.168499
     6  H    0.168339
 Sum of Mulliken charges =  -0.00000

 Dipole moment (field-independent basis, Debye):
    X=              0.0000    Y=              0.0178    Z=             -0.0686  Tot=              0.0708
 Quadrupole moment (field-independent basis, Debye-Ang):
   XX=            -12.2060   YY=            -12.2113   ZZ=            -15.6692
   XY=              0.0234   XZ=             -0.0013   YZ=             -0.0021

 Normal termination of Gaussian 16 at Wed Jan 11 18:36:15 2023.
