 Gaussian 16, Revision C.01,
 Gaussian 16:  ES64L-G16RevC.01  3-Jul-2019

 -------------------------------------------------------
 # WB97XD/6-311G SCF=XQC FORCE nosym pop=full guess=read
 -------------------------------------------------------

 ------------
 MD Step 1000
 ------------
 Symbolic Z-matrix:
 Charge =  0 Multiplicity = 1

                          Input orientation:
 ---------------------------------------------------------------------
 Center     Atomic      Atomic             Coordinates (Angstroms)
 Number     Number       Type             X           Y           Z
 ---------------------------------------------------------------------
      1          6           0       -0.337335   -0.583625    0.004451
      2          1           0        0.224623   -1.521106   -0.010711
      3          1           0       -1.419862   -0.579919   -0.011629
      4          6           0        0.332841    0.576794    0.003102
      5          1           0       -0.154327    1.571173   -0.013644
      6          1           0        1.444395    0.652531   -0.012741
 ---------------------------------------------------------------------

 SCF Done:  E(RwB97XD) =  -78.5554289567     A.U. after    8 cycles

 Alpha  occ. eigenvalues --  -10.29082 -10.28773  -0.86353  -0.67243  -0.55993
 Alpha  occ. eigenvalues --   -0.50878  -0.43677  -0.35653
 Alpha virt. eigenvalues --    0.07958   0.14092   0.16495   0.17018   0.24058
 Alpha virt. eigenvalues --    0.37130   0.39384   0.40030   0.46392   0.48869
 Alpha virt. eigenvalues --    0.49399   0.59084   0.66592   0.69183   0.77208

 Mulliken charges:
               1
     1  C   -0.339433
     2  H    0.174393
     3  H    0.176043
     4  C   -0.347668
     5  H    0.168590
     6  H    0.168074
 Sum of Mulliken charges =   0.00000

 Dipole moment (field-independent basis, Debye):
    X=              0.0057    Y=              0.0228    Z=             -0.0530  Tot=              0.0580
 Quadrupole moment (field-independent basis, Debye-Ang):
   XX=            -12.1982   YY=            -12.2183   ZZ=            -15.6776
   XY=              0.0108   XZ=              0.0001   YZ=             -0.0028

 Normal termination of Gaussian 16 at Wed Jan 11 10:45:29 2023.
