 Gaussian 16, Revision C.01,
 Gaussian 16:  ES64L-G16RevC.01  3-Jul-2019

 ------------------------------------------
 # BLYP/STO-3G SCF=XQC FORCE nosym pop=full
 ------------------------------------------

 ------------
 MD Step 1000
 ------------
 Symbolic Z-matrix:
 Charge =  0 Multiplicity = 1

                          Input orientation:
 ---------------------------------------------------------------------
 Center     Atomic      Atomic             Coordinates (Angstroms)
 Number     Number       Type             X           Y           Z
 ---------------------------------------------------------------------
      1          3           0        2.033438    1.832955    2.278508
      2          1           0        0.462106    1.842808    1.772052
 ---------------------------------------------------------------------

 SCF Done:  E(RB-LYP) =  -7.94279532377     A.U. after   10 cycles

 Alpha  occ. eigenvalues --   -1.77365  -0.13626
 Alpha virt. eigenvalues --   -0.02729   0.03337   0.03337   0.32016

 Mulliken charges:
               1
     1  Li  -0.005046
     2  H    0.005046
 Sum of Mulliken charges =   0.00000

 Dipole moment (field-independent basis, Debye):
    X=              4.4764    Y=             -0.0281    Z=              1.4428  Tot=              4.7032
 Quadrupole moment (field-independent basis, Debye-Ang):
   XX=              9.8145   YY=             -5.5223   ZZ=              0.8468
   XY=              8.1666   XZ=             12.1757   YZ=              2.5866

 Normal termination of Gaussian 16 at Thu Dec 29 05:02:52 2022.
