 Gaussian 16, Revision C.01,
 Gaussian 16:  ES64L-G16RevC.01  3-Jul-2019

 ------------------------------------------
 # BLYP/STO-3G SCF=XQC FORCE nosym pop=full
 ------------------------------------------

 ---------
 MD Step 5
 ---------
 Symbolic Z-matrix:
 Charge =  0 Multiplicity = 1

                          Input orientation:
 ---------------------------------------------------------------------
 Center     Atomic      Atomic             Coordinates (Angstroms)
 Number     Number       Type             X           Y           Z
 ---------------------------------------------------------------------
      1          3           0        0.007644    0.007643    0.036272
      2          1           0        0.019701    0.019700    2.822370
 ---------------------------------------------------------------------

 SCF Done:  E(RB-LYP) =  -7.85557049792     A.U. after   14 cycles

 Alpha  occ. eigenvalues --   -1.80370  -0.10116
 Alpha virt. eigenvalues --   -0.04958   0.01692   0.01692   0.09197

 Mulliken charges:
               1
     1  Li   0.041367
     2  H   -0.041367
 Sum of Mulliken charges =  -0.00000

 Dipole moment (field-independent basis, Debye):
    X=             -0.0185    Y=             -0.0185    Z=             -4.2645  Tot=              4.2646
 Quadrupole moment (field-independent basis, Debye-Ang):
   XX=             -6.0185   YY=             -6.0185   ZZ=            -10.6036
   XY=             -0.0004   XZ=             -0.0518   YZ=             -0.0518

 Normal termination of Gaussian 16 at Thu Dec 29 00:17:24 2022.
