 Gaussian 16, Revision C.01,
 Gaussian 16:  ES64L-G16RevC.01  3-Jul-2019

 -------------------------------------------------------
 # WB97XD/6-311G SCF=XQC FORCE nosym pop=full guess=read
 -------------------------------------------------------

 -----------
 MD Step 999
 -----------
 Symbolic Z-matrix:
 Charge =  0 Multiplicity = 1

                          Input orientation:
 ---------------------------------------------------------------------
 Center     Atomic      Atomic             Coordinates (Angstroms)
 Number     Number       Type             X           Y           Z
 ---------------------------------------------------------------------
      1          6           0       -0.336635   -0.582297    0.006826
      2          1           0        0.230450   -1.527608   -0.021857
      3          1           0       -1.426079   -0.573626   -0.022277
      4          6           0        0.332169    0.575214    0.004486
      5          1           0       -0.151695    1.567789   -0.025264
      6          1           0        1.440944    0.658239   -0.024989
 ---------------------------------------------------------------------

 SCF Done:  E(RwB97XD) =  -78.5551042532     A.U. after    8 cycles

 Alpha  occ. eigenvalues --  -10.29011 -10.28896  -0.86403  -0.67155  -0.55925
 Alpha  occ. eigenvalues --   -0.50907  -0.43556  -0.35717
 Alpha virt. eigenvalues --    0.08008   0.14056   0.16414   0.16964   0.24068
 Alpha virt. eigenvalues --    0.37016   0.39317   0.40178   0.46331   0.48812
 Alpha virt. eigenvalues --    0.49353   0.59108   0.66493   0.69006   0.77256

 Mulliken charges:
               1
     1  C   -0.338833
     2  H    0.173869
     3  H    0.175469
     4  C   -0.347724
     5  H    0.168737
     6  H    0.168483
 Sum of Mulliken charges =  -0.00000

 Dipole moment (field-independent basis, Debye):
    X=              0.0090    Y=              0.0342    Z=             -0.0970  Tot=              0.1033
 Quadrupole moment (field-independent basis, Debye-Ang):
   XX=            -12.2056   YY=            -12.2307   ZZ=            -15.6781
   XY=              0.0075   XZ=             -0.0014   YZ=             -0.0032

 Normal termination of Gaussian 16 at Wed Jan 11 18:48:01 2023.
