 Gaussian 16, Revision C.01,
 Gaussian 16:  ES64L-G16RevC.01  3-Jul-2019

 -------------------------------------------------------
 # WB97XD/6-311G SCF=XQC FORCE nosym pop=full guess=read
 -------------------------------------------------------

 -----------
 MD Step 999
 -----------
 Symbolic Z-matrix:
 Charge =  0 Multiplicity = 1

                          Input orientation:
 ---------------------------------------------------------------------
 Center     Atomic      Atomic             Coordinates (Angstroms)
 Number     Number       Type             X           Y           Z
 ---------------------------------------------------------------------
      1          6           0       -0.331870   -0.574402    0.002835
      2          1           0        0.203438   -1.536324    0.000947
      3          1           0       -1.420584   -0.601250   -0.000418
      4          6           0        0.330766    0.573131    0.001366
      5          1           0       -0.159869    1.554855   -0.002804
      6          1           0        1.436283    0.643979   -0.001686
 ---------------------------------------------------------------------

 SCF Done:  E(RwB97XD) =  -78.5565435208     A.U. after    8 cycles

 Alpha  occ. eigenvalues --  -10.28775 -10.28656  -0.86642  -0.67261  -0.55872
 Alpha  occ. eigenvalues --   -0.51340  -0.43406  -0.35910
 Alpha virt. eigenvalues --    0.08281   0.14192   0.16438   0.17022   0.24178
 Alpha virt. eigenvalues --    0.38053   0.39123   0.40034   0.46229   0.49042
 Alpha virt. eigenvalues --    0.49241   0.59261   0.66489   0.69261   0.77394

 Mulliken charges:
               1
     1  C   -0.338924
     2  H    0.171223
     3  H    0.172949
     4  C   -0.343449
     5  H    0.169428
     6  H    0.168773
 Sum of Mulliken charges =  -0.00000

 Dipole moment (field-independent basis, Debye):
    X=             -0.0015    Y=              0.0186    Z=             -0.0101  Tot=              0.0212
 Quadrupole moment (field-independent basis, Debye-Ang):
   XX=            -12.2251   YY=            -12.1797   ZZ=            -15.6186
   XY=              0.0641   XZ=              0.0003   YZ=             -0.0040

 Normal termination of Gaussian 16 at Thu Jan 12 13:56:38 2023.
