 Gaussian 16, Revision C.01,
 Gaussian 16:  ES64L-G16RevC.01  3-Jul-2019

 -------------------------------------------------------
 # WB97XD/6-311G SCF=XQC FORCE nosym pop=full guess=read
 -------------------------------------------------------

 -----------
 MD Step 999
 -----------
 Symbolic Z-matrix:
 Charge =  0 Multiplicity = 1

                          Input orientation:
 ---------------------------------------------------------------------
 Center     Atomic      Atomic             Coordinates (Angstroms)
 Number     Number       Type             X           Y           Z
 ---------------------------------------------------------------------
      1          6           0       -0.337060   -0.583080    0.004214
      2          1           0        0.224108   -1.519881   -0.009207
      3          1           0       -1.418635   -0.580588   -0.010107
      4          6           0        0.332232    0.575715    0.002844
      5          1           0       -0.153369    1.575023   -0.012196
      6          1           0        1.446702    0.654483   -0.011315
 ---------------------------------------------------------------------

 SCF Done:  E(RwB97XD) =  -78.5552265417     A.U. after    8 cycles

 Alpha  occ. eigenvalues --  -10.29129 -10.28740  -0.86385  -0.67209  -0.55969
 Alpha  occ. eigenvalues --   -0.50931  -0.43597  -0.35691
 Alpha virt. eigenvalues --    0.07994   0.14085   0.16460   0.16991   0.24055
 Alpha virt. eigenvalues --    0.37177   0.39303   0.40097   0.46288   0.48873
 Alpha virt. eigenvalues --    0.49374   0.59096   0.66542   0.69144   0.77156

 Mulliken charges:
               1
     1  C   -0.339197
     2  H    0.174572
     3  H    0.176281
     4  C   -0.347595
     5  H    0.168213
     6  H    0.167726
 Sum of Mulliken charges =  -0.00000

 Dipole moment (field-independent basis, Debye):
    X=              0.0049    Y=              0.0204    Z=             -0.0472  Tot=              0.0517
 Quadrupole moment (field-independent basis, Debye-Ang):
   XX=            -12.2042   YY=            -12.2156   ZZ=            -15.6765
   XY=              0.0192   XZ=             -0.0000   YZ=             -0.0029

 Normal termination of Gaussian 16 at Wed Jan 11 10:45:25 2023.
