 Gaussian 16, Revision C.01,
 Gaussian 16:  ES64L-G16RevC.01  3-Jul-2019

 -------------------------------------------------------
 # WB97XD/6-311G SCF=XQC FORCE nosym pop=full guess=read
 -------------------------------------------------------

 -----------
 MD Step 999
 -----------
 Symbolic Z-matrix:
 Charge =  0 Multiplicity = 1

                          Input orientation:
 ---------------------------------------------------------------------
 Center     Atomic      Atomic             Coordinates (Angstroms)
 Number     Number       Type             X           Y           Z
 ---------------------------------------------------------------------
      1          6           0       -0.335618   -0.580862    0.008087
      2          1           0        0.214150   -1.528237   -0.029293
      3          1           0       -1.418366   -0.590378   -0.030382
      4          6           0        0.332699    0.576852    0.006630
      5          1           0       -0.162079    1.569191   -0.033763
      6          1           0        1.450438    0.646593   -0.032556
 ---------------------------------------------------------------------

 SCF Done:  E(RwB97XD) =  -78.5552844938     A.U. after    8 cycles

 Alpha  occ. eigenvalues --  -10.29158 -10.28765  -0.86395  -0.67164  -0.55873
 Alpha  occ. eigenvalues --   -0.50988  -0.43551  -0.35719
 Alpha virt. eigenvalues --    0.07985   0.14070   0.16408   0.16967   0.24069
 Alpha virt. eigenvalues --    0.37504   0.39183   0.39884   0.46272   0.48801
 Alpha virt. eigenvalues --    0.49354   0.59105   0.66466   0.68988   0.77143

 Mulliken charges:
               1
     1  C   -0.339368
     2  H    0.173334
     3  H    0.175086
     4  C   -0.345579
     5  H    0.168714
     6  H    0.167814
 Sum of Mulliken charges =  -0.00000

 Dipole moment (field-independent basis, Debye):
    X=             -0.0036    Y=              0.0142    Z=             -0.1285  Tot=              0.1293
 Quadrupole moment (field-independent basis, Debye-Ang):
   XX=            -12.2162   YY=            -12.2169   ZZ=            -15.6733
   XY=              0.0223   XZ=             -0.0011   YZ=             -0.0052

 Normal termination of Gaussian 16 at Wed Jan 11 18:33:57 2023.
