 Gaussian 16, Revision C.01,
 Gaussian 16:  ES64L-G16RevC.01  3-Jul-2019

 -------------------------------------------------------
 # WB97XD/6-311G SCF=XQC FORCE nosym pop=full guess=read
 -------------------------------------------------------

 -----------
 MD Step 999
 -----------
 Symbolic Z-matrix:
 Charge =  0 Multiplicity = 1

                          Input orientation:
 ---------------------------------------------------------------------
 Center     Atomic      Atomic             Coordinates (Angstroms)
 Number     Number       Type             X           Y           Z
 ---------------------------------------------------------------------
      1          6           0       -0.335963   -0.580947    0.006294
      2          1           0        0.217694   -1.529851   -0.022141
      3          1           0       -1.422654   -0.591408   -0.023333
      4          6           0        0.332519    0.576921    0.004810
      5          1           0       -0.157745    1.562988   -0.025086
      6          1           0        1.441650    0.644155   -0.023857
 ---------------------------------------------------------------------

 SCF Done:  E(RwB97XD) =  -78.5558897495     A.U. after    8 cycles

 Alpha  occ. eigenvalues --  -10.28986 -10.28812  -0.86399  -0.67240  -0.55914
 Alpha  occ. eigenvalues --   -0.50987  -0.43628  -0.35705
 Alpha virt. eigenvalues --    0.08005   0.14108   0.16470   0.17013   0.24093
 Alpha virt. eigenvalues --    0.37458   0.39290   0.39916   0.46402   0.48843
 Alpha virt. eigenvalues --    0.49368   0.59118   0.66556   0.69109   0.77317

 Mulliken charges:
               1
     1  C   -0.339452
     2  H    0.172699
     3  H    0.174584
     4  C   -0.345771
     5  H    0.169461
     6  H    0.168478
 Sum of Mulliken charges =  -0.00000

 Dipole moment (field-independent basis, Debye):
    X=              0.0025    Y=              0.0216    Z=             -0.0966  Tot=              0.0990
 Quadrupole moment (field-independent basis, Debye-Ang):
   XX=            -12.2071   YY=            -12.2115   ZZ=            -15.6651
   XY=              0.0220   XZ=              0.0007   YZ=             -0.0024

 Normal termination of Gaussian 16 at Wed Jan 11 18:46:23 2023.
