 Gaussian 16, Revision C.01,
 Gaussian 16:  ES64L-G16RevC.01  3-Jul-2019

 -------------------------------------------------------
 # WB97XD/6-311G SCF=XQC FORCE nosym pop=full guess=read
 -------------------------------------------------------

 -----------
 MD Step 999
 -----------
 Symbolic Z-matrix:
 Charge =  0 Multiplicity = 1

                          Input orientation:
 ---------------------------------------------------------------------
 Center     Atomic      Atomic             Coordinates (Angstroms)
 Number     Number       Type             X           Y           Z
 ---------------------------------------------------------------------
      1          6           0       -0.337134   -0.583018    0.010347
      2          1           0        0.228722   -1.522552   -0.037972
      3          1           0       -1.419046   -0.573030   -0.039354
      4          6           0        0.331610    0.575076    0.006628
      5          1           0       -0.148687    1.568700   -0.043926
      6          1           0        1.443641    0.660314   -0.042206
 ---------------------------------------------------------------------

 SCF Done:  E(RwB97XD) =  -78.5546313332     A.U. after    8 cycles

 Alpha  occ. eigenvalues --  -10.29046 -10.28806  -0.86422  -0.67221  -0.55965
 Alpha  occ. eigenvalues --   -0.50944  -0.43556  -0.35709
 Alpha virt. eigenvalues --    0.07952   0.14078   0.16450   0.17002   0.24080
 Alpha virt. eigenvalues --    0.37058   0.39298   0.40263   0.46351   0.48963
 Alpha virt. eigenvalues --    0.49368   0.59111   0.66513   0.69111   0.77233

 Mulliken charges:
               1
     1  C   -0.338582
     2  H    0.174376
     3  H    0.176080
     4  C   -0.348356
     5  H    0.168686
     6  H    0.167796
 Sum of Mulliken charges =   0.00000

 Dipole moment (field-independent basis, Debye):
    X=              0.0053    Y=              0.0328    Z=             -0.1638  Tot=              0.1671
 Quadrupole moment (field-independent basis, Debye-Ang):
   XX=            -12.2170   YY=            -12.2280   ZZ=            -15.6639
   XY=              0.0137   XZ=             -0.0002   YZ=             -0.0050

 Normal termination of Gaussian 16 at Wed Jan 11 18:48:39 2023.
