 Gaussian 16, Revision C.01,
 Gaussian 16:  ES64L-G16RevC.01  3-Jul-2019

 -------------------------------------------------------
 # WB97XD/6-311G SCF=XQC FORCE nosym pop=full guess=read
 -------------------------------------------------------

 ------------
 MD Step 1000
 ------------
 Symbolic Z-matrix:
 Charge =  0 Multiplicity = 1

                          Input orientation:
 ---------------------------------------------------------------------
 Center     Atomic      Atomic             Coordinates (Angstroms)
 Number     Number       Type             X           Y           Z
 ---------------------------------------------------------------------
      1          6           0       -0.334967   -0.579946    0.003787
      2          1           0        0.203735   -1.535127   -0.009420
      3          1           0       -1.421773   -0.601216   -0.009936
      4          6           0        0.334076    0.578782    0.003046
      5          1           0       -0.175916    1.559952   -0.010505
      6          1           0        1.446064    0.631755   -0.010063
 ---------------------------------------------------------------------

 SCF Done:  E(RwB97XD) =  -78.5562870556     A.U. after    8 cycles

 Alpha  occ. eigenvalues --  -10.29076 -10.28777  -0.86363  -0.67189  -0.55899
 Alpha  occ. eigenvalues --   -0.50932  -0.43682  -0.35686
 Alpha virt. eigenvalues --    0.08005   0.14090   0.16454   0.17008   0.24078
 Alpha virt. eigenvalues --    0.37688   0.39318   0.39542   0.46409   0.48734
 Alpha virt. eigenvalues --    0.49376   0.59104   0.66544   0.69069   0.77243

 Mulliken charges:
               1
     1  C   -0.340540
     2  H    0.172160
     3  H    0.173694
     4  C   -0.343848
     5  H    0.169424
     6  H    0.169111
 Sum of Mulliken charges =   0.00000

 Dipole moment (field-independent basis, Debye):
    X=             -0.0053    Y=              0.0058    Z=             -0.0444  Tot=              0.0451
 Quadrupole moment (field-independent basis, Debye-Ang):
   XX=            -12.1984   YY=            -12.2158   ZZ=            -15.6759
   XY=              0.0111   XZ=              0.0005   YZ=             -0.0006

 Normal termination of Gaussian 16 at Wed Jan 11 18:35:00 2023.
