 Gaussian 16, Revision C.01,
 Gaussian 16:  ES64L-G16RevC.01  3-Jul-2019

 -------------------------------------------------------
 # WB97XD/6-311G SCF=XQC FORCE nosym pop=full guess=read
 -------------------------------------------------------

 ------------
 MD Step 1000
 ------------
 Symbolic Z-matrix:
 Charge =  0 Multiplicity = 1

                          Input orientation:
 ---------------------------------------------------------------------
 Center     Atomic      Atomic             Coordinates (Angstroms)
 Number     Number       Type             X           Y           Z
 ---------------------------------------------------------------------
      1          6           0       -0.338772   -0.586384    0.006120
      2          1           0        0.235231   -1.510637   -0.016938
      3          1           0       -1.417297   -0.564478   -0.018466
      4          6           0        0.332374    0.576033    0.003703
      5          1           0       -0.142312    1.573333   -0.021505
      6          1           0        1.440872    0.665369   -0.019883
 ---------------------------------------------------------------------

 SCF Done:  E(RwB97XD) =  -78.5546603801     A.U. after    8 cycles

 Alpha  occ. eigenvalues --  -10.29031 -10.28737  -0.86357  -0.67348  -0.56127
 Alpha  occ. eigenvalues --   -0.50815  -0.43724  -0.35612
 Alpha virt. eigenvalues --    0.07904   0.14113   0.16573   0.17070   0.24058
 Alpha virt. eigenvalues --    0.36704   0.39526   0.40372   0.46474   0.49072
 Alpha virt. eigenvalues --    0.49433   0.59075   0.66678   0.69406   0.77219

 Mulliken charges:
               1
     1  C   -0.339283
     2  H    0.176199
     3  H    0.177560
     4  C   -0.350747
     5  H    0.168437
     6  H    0.167833
 Sum of Mulliken charges =  -0.00000

 Dipole moment (field-independent basis, Debye):
    X=              0.0126    Y=              0.0349    Z=             -0.0806  Tot=              0.0887
 Quadrupole moment (field-independent basis, Debye-Ang):
   XX=            -12.1963   YY=            -12.2204   ZZ=            -15.6704
   XY=              0.0054   XZ=              0.0008   YZ=             -0.0039

 Normal termination of Gaussian 16 at Wed Jan 11 19:41:40 2023.
