 Gaussian 16, Revision C.01,
 Gaussian 16:  ES64L-G16RevC.01  3-Jul-2019

 -------------------------------------------------------
 # WB97XD/6-311G SCF=XQC FORCE nosym pop=full guess=read
 -------------------------------------------------------

 -----------
 MD Step 999
 -----------
 Symbolic Z-matrix:
 Charge =  0 Multiplicity = 1

                          Input orientation:
 ---------------------------------------------------------------------
 Center     Atomic      Atomic             Coordinates (Angstroms)
 Number     Number       Type             X           Y           Z
 ---------------------------------------------------------------------
      1          6           0       -0.335813   -0.580285    0.006396
      2          1           0        0.215173   -1.531996   -0.022415
      3          1           0       -1.420671   -0.594027   -0.023742
      4          6           0        0.332386    0.576542    0.004938
      5          1           0       -0.161387    1.565998   -0.026010
      6          1           0        1.446021    0.642923   -0.024589
 ---------------------------------------------------------------------

 SCF Done:  E(RwB97XD) =  -78.5556997622     A.U. after    8 cycles

 Alpha  occ. eigenvalues --  -10.29070 -10.28801  -0.86406  -0.67177  -0.55869
 Alpha  occ. eigenvalues --   -0.51006  -0.43562  -0.35730
 Alpha virt. eigenvalues --    0.08022   0.14084   0.16419   0.16973   0.24081
 Alpha virt. eigenvalues --    0.37544   0.39207   0.39865   0.46306   0.48780
 Alpha virt. eigenvalues --    0.49348   0.59118   0.66493   0.68999   0.77223

 Mulliken charges:
               1
     1  C   -0.339439
     2  H    0.172558
     3  H    0.174725
     4  C   -0.345204
     5  H    0.169111
     6  H    0.168249
 Sum of Mulliken charges =   0.00000

 Dipole moment (field-independent basis, Debye):
    X=             -0.0017    Y=              0.0169    Z=             -0.0987  Tot=              0.1002
 Quadrupole moment (field-independent basis, Debye-Ang):
   XX=            -12.2110   YY=            -12.2141   ZZ=            -15.6706
   XY=              0.0249   XZ=              0.0004   YZ=             -0.0034

 Normal termination of Gaussian 16 at Wed Jan 11 18:49:32 2023.
