 Gaussian 16, Revision C.01,
 Gaussian 16:  ES64L-G16RevC.01  3-Jul-2019

 -------------------------------------------------------
 # WB97XD/6-311G SCF=XQC FORCE nosym pop=full guess=read
 -------------------------------------------------------

 ------------
 MD Step 1000
 ------------
 Symbolic Z-matrix:
 Charge =  0 Multiplicity = 1

                          Input orientation:
 ---------------------------------------------------------------------
 Center     Atomic      Atomic             Coordinates (Angstroms)
 Number     Number       Type             X           Y           Z
 ---------------------------------------------------------------------
      1          6           0       -0.335339   -0.580255    0.007290
      2          1           0        0.214149   -1.535158   -0.025822
      3          1           0       -1.426454   -0.598504   -0.028151
      4          6           0        0.333931    0.579160    0.006146
      5          1           0       -0.166651    1.560719   -0.030772
      6          1           0        1.442703    0.632980   -0.028384
 ---------------------------------------------------------------------

 SCF Done:  E(RwB97XD) =  -78.5559374100     A.U. after    8 cycles

 Alpha  occ. eigenvalues --  -10.29031 -10.28895  -0.86347  -0.67167  -0.55875
 Alpha  occ. eigenvalues --   -0.50905  -0.43664  -0.35677
 Alpha virt. eigenvalues --    0.07959   0.14069   0.16433   0.16992   0.24075
 Alpha virt. eigenvalues --    0.37540   0.39300   0.39639   0.46429   0.48708
 Alpha virt. eigenvalues --    0.49380   0.59092   0.66524   0.68964   0.77286

 Mulliken charges:
               1
     1  C   -0.340138
     2  H    0.171887
     3  H    0.173749
     4  C   -0.344497
     5  H    0.169943
     6  H    0.169056
 Sum of Mulliken charges =  -0.00000

 Dipole moment (field-independent basis, Debye):
    X=              0.0011    Y=              0.0152    Z=             -0.1160  Tot=              0.1170
 Quadrupole moment (field-independent basis, Debye-Ang):
   XX=            -12.2034   YY=            -12.2254   ZZ=            -15.6792
   XY=              0.0058   XZ=              0.0012   YZ=             -0.0055

 Normal termination of Gaussian 16 at Wed Jan 11 16:33:02 2023.
