 Gaussian 16, Revision C.01,
 Gaussian 16:  ES64L-G16RevC.01  3-Jul-2019

 -----------------------------------------------------
 # OPT FREQ=saveNM B3LYP/6-311++G** GFINPUT IOP(6/7=1)
 -----------------------------------------------------

 -------
 TitleMe
 -------
 Symbolic Z-matrix:
 Charge =  0 Multiplicity = 1

 SCF Done:  E(RB3LYP) =  -78.6155139608     A.U. after    8 cycles
 SCF Done:  E(RB3LYP) =  -78.6155381303     A.U. after    6 cycles
 Optimization completed.
    -- Stationary point found.
 Normal termination of Gaussian 16 at Sun Jan  1 20:54:41 2023.

 ----------------------------------------------------------------------
 #N Geom=AllCheck Guess=TCheck SCRF=Check Test GenChk RB3LYP/6-311++G(d
 ,p) Freq
 ----------------------------------------------------------------------

 Structure from the checkpoint file:  "geometry.chk"
 -------
 TitleMe
 -------
 Charge =  0 Multiplicity = 1

                         Standard orientation:
 ---------------------------------------------------------------------
 Center     Atomic      Atomic             Coordinates (Angstroms)
 Number     Number       Type             X           Y           Z
 ---------------------------------------------------------------------
      1          6           0        0.000000    0.000000    0.664233
      2          6           0        0.000000    0.000000   -0.664233
      3          1           0        0.000000    0.922551   -1.235266
      4          1           0       -0.000000    0.922551    1.235266
      5          1           0       -0.000000   -0.922551    1.235266
      6          1           0       -0.000000   -0.922551   -1.235266
 ---------------------------------------------------------------------

 SCF Done:  E(RB3LYP) =  -78.6155381303     A.U. after    1 cycles

 The electronic state is 1-AG.
 Alpha  occ. eigenvalues --  -10.17451 -10.17362  -0.76745  -0.58546  -0.47545
 Alpha  occ. eigenvalues --   -0.42861  -0.36121  -0.28156
 Alpha virt. eigenvalues --   -0.01077   0.00086   0.01910   0.02219   0.05381
 Alpha virt. eigenvalues --    0.06638   0.08055   0.11197   0.12395   0.12790
 Alpha virt. eigenvalues --    0.14269   0.15448   0.15702   0.16537   0.17287

 Mulliken charges:
               1
     1  C   -0.221612
     2  C   -0.221612
     3  H    0.110806
     4  H    0.110806
     5  H    0.110806
     6  H    0.110806
 Sum of Mulliken charges =  -0.00000

 Dipole moment (field-independent basis, Debye):
    X=             -0.0000    Y=              0.0000    Z=              0.0000  Tot=              0.0000
 Quadrupole moment (field-independent basis, Debye-Ang):
   XX=            -15.8935   YY=            -12.4459   ZZ=            -12.3929
   XY=              0.0000   XZ=              0.0000   YZ=              0.0000

  Exact polarizability:      18.975       0.000      21.905      -0.000      -0.000      35.264
 Approx polarizability:      23.370       0.000      27.302      -0.000      -0.000      52.287

                      1                      2                      3
                     B2U                    B3U                    B2G
 Frequencies --    834.4277               974.6257               976.6887
 Red. masses --      1.0428                 1.1607                 1.5192
 Frc consts  --      0.4278                 0.6496                 0.8538
 IR Inten    --      0.7046               112.3657                 0.0000

                      4                      5                      6
                     AU                     B3G                    AG
 Frequencies --   1058.4693              1237.8857              1377.8428
 Red. masses --      1.0078                 1.5266                 1.2215
 Frc consts  --      0.6653                 1.3783                 1.3663
 IR Inten    --      0.0000                 0.0000                 0.0000

                      7                      8                      9
                     B1U                    AG                     B1U
 Frequencies --   1471.7487              1684.8500              3122.1053
 Red. masses --      1.1120                 3.1521                 1.0477
 Frc consts  --      1.4191                 5.2720                 6.0172
 IR Inten    --     10.1114                 0.0000                17.0388

                     10                     11                     12
                     AG                     B3G                    B2U
 Frequencies --   3136.5828              3193.5921              3222.0249
 Red. masses --      1.0731                 1.1140                 1.1176
 Frc consts  --      6.2201                 6.6942                 6.8358
 IR Inten    --      0.0000                 0.0000                25.6872

 - Thermochemistry -
 -------------------
 Temperature   298.150 Kelvin.  Pressure   1.00000 Atm.
 Atom     1 has atomic number  6 and mass  12.00000

 Molecular mass:    28.03130 amu.
 Principal axes and moments of inertia in atomic units:
                           1         2         3
     Eigenvalues --    12.25247  59.78043  72.03290
           X            0.00000   0.00000   1.00000
           Y            0.00000   1.00000  -0.00000
           Z            1.00000  -0.00000  -0.00000
 This molecule is an asymmetric top.
 Rotational symmetry number  4.
 Rotational temperatures (Kelvin)      7.06910     1.44887     1.20242
 Rotational constants (GHZ):         147.29609    30.18950    25.05440
 Zero-point vibrational energy     133328.9 (Joules/Mol)
                                   31.86636 (Kcal/Mol)
 Vibrational temperatures:   1200.56  1402.27  1405.24  1522.90  1781.04
          (Kelvin)           1982.41  2117.52  2424.12  4492.01  4512.84
                             4594.87  4635.78

 Zero-point correction=                           0.050782 (Hartree/Particle)
 Thermal correction to Energy=                    0.053824
 Thermal correction to Enthalpy=                  0.054769
 Thermal correction to Gibbs Free Energy=         0.029913
 Sum of electronic and zero-point Energies=            -78.564756
 Sum of electronic and thermal Energies=               -78.561714
 Sum of electronic and thermal Enthalpies=             -78.560769
 Sum of electronic and thermal Free Energies=          -78.585625

                     E (Thermal)             CV                S
                      KCal/Mol        Cal/Mol-Kelvin    Cal/Mol-Kelvin
 Total                   33.775              8.101             52.314
 Electronic               0.000              0.000              0.000
 Translational            0.889              2.981             35.927
 Rotational               0.889              2.981             15.852
 Vibrational             31.998              2.140              0.535

 Optimization completed.
    -- Stationary point found.
 Normal termination of Gaussian 16 at Sun Jan  1 20:55:00 2023.
