 Gaussian 16, Revision C.01,
 Gaussian 16:  ES64L-G16RevC.01  3-Jul-2019

 -------------------------------------------------------
 # WB97XD/6-311G SCF=XQC FORCE nosym pop=full guess=read
 -------------------------------------------------------

 -----------
 MD Step 999
 -----------
 Symbolic Z-matrix:
 Charge =  0 Multiplicity = 1

                          Input orientation:
 ---------------------------------------------------------------------
 Center     Atomic      Atomic             Coordinates (Angstroms)
 Number     Number       Type             X           Y           Z
 ---------------------------------------------------------------------
      1          6           0       -0.335335   -0.580903    0.007523
      2          1           0        0.210567   -1.531485   -0.027775
      3          1           0       -1.419866   -0.584672   -0.027842
      4          6           0        0.332884    0.575789    0.005408
      5          1           0       -0.167321    1.565989   -0.029304
      6          1           0        1.445971    0.651244   -0.029022
 ---------------------------------------------------------------------

 SCF Done:  E(RwB97XD) =  -78.5555032372     A.U. after    8 cycles

 Alpha  occ. eigenvalues --  -10.29101 -10.28769  -0.86417  -0.67163  -0.55887
 Alpha  occ. eigenvalues --   -0.50996  -0.43555  -0.35733
 Alpha virt. eigenvalues --    0.08016   0.14082   0.16412   0.16978   0.24079
 Alpha virt. eigenvalues --    0.37498   0.39222   0.39888   0.46291   0.48817
 Alpha virt. eigenvalues --    0.49346   0.59120   0.66481   0.69025   0.77189

 Mulliken charges:
               1
     1  C   -0.339241
     2  H    0.173406
     3  H    0.174598
     4  C   -0.345579
     5  H    0.168213
     6  H    0.168604
 Sum of Mulliken charges =   0.00000

 Dipole moment (field-independent basis, Debye):
    X=             -0.0017    Y=              0.0166    Z=             -0.1156  Tot=              0.1169
 Quadrupole moment (field-independent basis, Debye-Ang):
   XX=            -12.2125   YY=            -12.2186   ZZ=            -15.6694
   XY=              0.0208   XZ=              0.0003   YZ=             -0.0001

 Normal termination of Gaussian 16 at Wed Jan 11 18:49:24 2023.
