 Gaussian 16, Revision C.01,
 Gaussian 16:  ES64L-G16RevC.01  3-Jul-2019

 -------------------------------------------------------
 # WB97XD/6-311G SCF=XQC FORCE nosym pop=full guess=read
 -------------------------------------------------------

 ------------
 MD Step 1000
 ------------
 Symbolic Z-matrix:
 Charge =  0 Multiplicity = 1

                          Input orientation:
 ---------------------------------------------------------------------
 Center     Atomic      Atomic             Coordinates (Angstroms)
 Number     Number       Type             X           Y           Z
 ---------------------------------------------------------------------
      1          6           0       -0.335155   -0.579966    0.006998
      2          1           0        0.206391   -1.531441   -0.025001
      3          1           0       -1.419748   -0.603352   -0.026670
      4          6           0        0.333889    0.578998    0.005869
      5          1           0       -0.169851    1.562396   -0.028068
      6          1           0        1.445668    0.631314   -0.026201
 ---------------------------------------------------------------------

 SCF Done:  E(RwB97XD) =  -78.5560785534     A.U. after    8 cycles

 Alpha  occ. eigenvalues --  -10.29076 -10.28755  -0.86368  -0.67232  -0.55898
 Alpha  occ. eigenvalues --   -0.50966  -0.43676  -0.35682
 Alpha virt. eigenvalues --    0.07973   0.14103   0.16471   0.17022   0.24089
 Alpha virt. eigenvalues --    0.37702   0.39286   0.39625   0.46426   0.48802
 Alpha virt. eigenvalues --    0.49382   0.59105   0.66549   0.69097   0.77249

 Mulliken charges:
               1
     1  C   -0.340368
     2  H    0.172176
     3  H    0.174059
     4  C   -0.344158
     5  H    0.169564
     6  H    0.168728
 Sum of Mulliken charges =  -0.00000

 Dipole moment (field-independent basis, Debye):
    X=             -0.0037    Y=              0.0061    Z=             -0.1090  Tot=              0.1093
 Quadrupole moment (field-independent basis, Debye-Ang):
   XX=            -12.2052   YY=            -12.2128   ZZ=            -15.6684
   XY=              0.0182   XZ=              0.0018   YZ=             -0.0024

 Normal termination of Gaussian 16 at Wed Jan 11 16:38:22 2023.
