 Gaussian 16, Revision C.01,
 Gaussian 16:  ES64L-G16RevC.01  3-Jul-2019

 -------------------------------------------------------
 # WB97XD/6-311G SCF=XQC FORCE nosym pop=full guess=read
 -------------------------------------------------------

 -----------
 MD Step 999
 -----------
 Symbolic Z-matrix:
 Charge =  0 Multiplicity = 1

                          Input orientation:
 ---------------------------------------------------------------------
 Center     Atomic      Atomic             Coordinates (Angstroms)
 Number     Number       Type             X           Y           Z
 ---------------------------------------------------------------------
      1          6           0       -0.335870   -0.582120    0.007227
      2          1           0        0.216624   -1.523946   -0.024097
      3          1           0       -1.419514   -0.580462   -0.024798
      4          6           0        0.332980    0.575901    0.005473
      5          1           0       -0.158959    1.570279   -0.028037
      6          1           0        1.443504    0.655439   -0.027183
 ---------------------------------------------------------------------

 SCF Done:  E(RwB97XD) =  -78.5554037403     A.U. after    8 cycles

 Alpha  occ. eigenvalues --  -10.29080 -10.28745  -0.86404  -0.67230  -0.55942
 Alpha  occ. eigenvalues --   -0.50979  -0.43595  -0.35704
 Alpha virt. eigenvalues --    0.07990   0.14102   0.16462   0.17005   0.24078
 Alpha virt. eigenvalues --    0.37324   0.39276   0.40049   0.46333   0.48899
 Alpha virt. eigenvalues --    0.49368   0.59111   0.66539   0.69140   0.77212

 Mulliken charges:
               1
     1  C   -0.339151
     2  H    0.174213
     3  H    0.175319
     4  C   -0.346876
     5  H    0.168097
     6  H    0.168398
 Sum of Mulliken charges =  -0.00000

 Dipole moment (field-independent basis, Debye):
    X=              0.0045    Y=              0.0194    Z=             -0.1073  Tot=              0.1091
 Quadrupole moment (field-independent basis, Debye-Ang):
   XX=            -12.2102   YY=            -12.2136   ZZ=            -15.6668
   XY=              0.0230   XZ=             -0.0010   YZ=             -0.0044

 Normal termination of Gaussian 16 at Wed Jan 11 16:52:33 2023.
