 Gaussian 16, Revision C.01,
 Gaussian 16:  ES64L-G16RevC.01  3-Jul-2019

 -------------------------------------------------------
 # WB97XD/6-311G SCF=XQC FORCE nosym pop=full guess=read
 -------------------------------------------------------

 -----------
 MD Step 999
 -----------
 Symbolic Z-matrix:
 Charge =  0 Multiplicity = 1

                          Input orientation:
 ---------------------------------------------------------------------
 Center     Atomic      Atomic             Coordinates (Angstroms)
 Number     Number       Type             X           Y           Z
 ---------------------------------------------------------------------
      1          6           0       -0.336303   -0.582387    0.010168
      2          1           0        0.220164   -1.522679   -0.037522
      3          1           0       -1.419441   -0.580968   -0.038875
      4          6           0        0.332663    0.575912    0.007156
      5          1           0       -0.156346    1.572676   -0.042400
      6          1           0        1.445987    0.655110   -0.040636
 ---------------------------------------------------------------------

 SCF Done:  E(RwB97XD) =  -78.5548452714     A.U. after    8 cycles

 Alpha  occ. eigenvalues --  -10.29139 -10.28777  -0.86398  -0.67192  -0.55911
 Alpha  occ. eigenvalues --   -0.50968  -0.43549  -0.35706
 Alpha virt. eigenvalues --    0.07944   0.14074   0.16425   0.16982   0.24069
 Alpha virt. eigenvalues --    0.37278   0.39218   0.40087   0.46294   0.48890
 Alpha virt. eigenvalues --    0.49367   0.59099   0.66484   0.69033   0.77153

 Mulliken charges:
               1
     1  C   -0.338889
     2  H    0.174198
     3  H    0.175605
     4  C   -0.347135
     5  H    0.168193
     6  H    0.168028
 Sum of Mulliken charges =  -0.00000

 Dipole moment (field-independent basis, Debye):
    X=              0.0045    Y=              0.0204    Z=             -0.1607  Tot=              0.1620
 Quadrupole moment (field-independent basis, Debye-Ang):
   XX=            -12.2174   YY=            -12.2246   ZZ=            -15.6695
   XY=              0.0209   XZ=              0.0006   YZ=             -0.0037

 Normal termination of Gaussian 16 at Wed Jan 11 19:59:38 2023.
