 Gaussian 16, Revision C.01,
 Gaussian 16:  ES64L-G16RevC.01  3-Jul-2019

 -------------------------------------------------------
 # WB97XD/6-311G SCF=XQC FORCE nosym pop=full guess=read
 -------------------------------------------------------

 ------------
 MD Step 1000
 ------------
 Symbolic Z-matrix:
 Charge =  0 Multiplicity = 1

                          Input orientation:
 ---------------------------------------------------------------------
 Center     Atomic      Atomic             Coordinates (Angstroms)
 Number     Number       Type             X           Y           Z
 ---------------------------------------------------------------------
      1          6           0       -0.335932   -0.582142    0.006972
      2          1           0        0.214628   -1.529321   -0.024442
      3          1           0       -1.422922   -0.584177   -0.024831
      4          6           0        0.333991    0.577783    0.005767
      5          1           0       -0.162971    1.562197   -0.028110
      6          1           0        1.441106    0.649968   -0.027691
 ---------------------------------------------------------------------

 SCF Done:  E(RwB97XD) =  -78.5558070828     A.U. after    8 cycles

 Alpha  occ. eigenvalues --  -10.29013 -10.28821  -0.86355  -0.67258  -0.55938
 Alpha  occ. eigenvalues --   -0.50922  -0.43692  -0.35660
 Alpha virt. eigenvalues --    0.07947   0.14106   0.16492   0.17027   0.24082
 Alpha virt. eigenvalues --    0.37360   0.39346   0.39882   0.46462   0.48840
 Alpha virt. eigenvalues --    0.49397   0.59093   0.66589   0.69134   0.77299

 Mulliken charges:
               1
     1  C   -0.339672
     2  H    0.173416
     3  H    0.174527
     4  C   -0.346221
     5  H    0.168916
     6  H    0.169034
 Sum of Mulliken charges =  -0.00000

 Dipole moment (field-independent basis, Debye):
    X=              0.0032    Y=              0.0213    Z=             -0.1083  Tot=              0.1104
 Quadrupole moment (field-independent basis, Debye-Ang):
   XX=            -12.2021   YY=            -12.2166   ZZ=            -15.6706
   XY=              0.0147   XZ=             -0.0022   YZ=             -0.0051

 Normal termination of Gaussian 16 at Wed Jan 11 18:45:38 2023.
