 Gaussian 16, Revision C.01,
 Gaussian 16:  ES64L-G16RevC.01  3-Jul-2019

 -------------------------------------------------------
 # WB97XD/6-311G SCF=XQC FORCE nosym pop=full guess=read
 -------------------------------------------------------

 -----------
 MD Step 999
 -----------
 Symbolic Z-matrix:
 Charge =  0 Multiplicity = 1

                          Input orientation:
 ---------------------------------------------------------------------
 Center     Atomic      Atomic             Coordinates (Angstroms)
 Number     Number       Type             X           Y           Z
 ---------------------------------------------------------------------
      1          6           0       -0.335140   -0.580287    0.004380
      2          1           0        0.210999   -1.536473   -0.013265
      3          1           0       -1.426095   -0.592703   -0.013890
      4          6           0        0.333131    0.577235    0.003530
      5          1           0       -0.164997    1.558510   -0.015520
      6          1           0        1.440659    0.643645   -0.014945
 ---------------------------------------------------------------------

 SCF Done:  E(RwB97XD) =  -78.5561792179     A.U. after    8 cycles

 Alpha  occ. eigenvalues --  -10.28971 -10.28852  -0.86391  -0.67213  -0.55877
 Alpha  occ. eigenvalues --   -0.50994  -0.43623  -0.35712
 Alpha virt. eigenvalues --    0.08028   0.14104   0.16450   0.16994   0.24091
 Alpha virt. eigenvalues --    0.37559   0.39264   0.39810   0.46391   0.48765
 Alpha virt. eigenvalues --    0.49361   0.59118   0.66543   0.69048   0.77329

 Mulliken charges:
               1
     1  C   -0.339754
     2  H    0.172311
     3  H    0.173659
     4  C   -0.344898
     5  H    0.169523
     6  H    0.169160
 Sum of Mulliken charges =  -0.00000

 Dipole moment (field-independent basis, Debye):
    X=              0.0009    Y=              0.0203    Z=             -0.0608  Tot=              0.0641
 Quadrupole moment (field-independent basis, Debye-Ang):
   XX=            -12.2061   YY=            -12.2082   ZZ=            -15.6696
   XY=              0.0225   XZ=             -0.0004   YZ=             -0.0026

 Normal termination of Gaussian 16 at Wed Jan 11 18:43:36 2023.
