 Gaussian 16, Revision C.01,
 Gaussian 16:  ES64L-G16RevC.01  3-Jul-2019

 -------------------------------------------------------
 # WB97XD/6-311G SCF=XQC FORCE nosym pop=full guess=read
 -------------------------------------------------------

 -----------
 MD Step 999
 -----------
 Symbolic Z-matrix:
 Charge =  0 Multiplicity = 1

                          Input orientation:
 ---------------------------------------------------------------------
 Center     Atomic      Atomic             Coordinates (Angstroms)
 Number     Number       Type             X           Y           Z
 ---------------------------------------------------------------------
      1          6           0       -0.335840   -0.581187    0.005629
      2          1           0        0.218588   -1.527466   -0.015427
      3          1           0       -1.420111   -0.583872   -0.015979
      4          6           0        0.332392    0.575901    0.003717
      5          1           0       -0.158375    1.567025   -0.017989
      6          1           0        1.445581    0.651911   -0.017378
 ---------------------------------------------------------------------

 SCF Done:  E(RwB97XD) =  -78.5556058533     A.U. after    8 cycles

 Alpha  occ. eigenvalues --  -10.29053 -10.28772  -0.86416  -0.67197  -0.55926
 Alpha  occ. eigenvalues --   -0.50983  -0.43578  -0.35724
 Alpha virt. eigenvalues --    0.08031   0.14093   0.16443   0.16990   0.24078
 Alpha virt. eigenvalues --    0.37365   0.39273   0.39998   0.46314   0.48844
 Alpha virt. eigenvalues --    0.49353   0.59120   0.66524   0.69097   0.77233

 Mulliken charges:
               1
     1  C   -0.339170
     2  H    0.173551
     3  H    0.175173
     4  C   -0.346358
     5  H    0.168671
     6  H    0.168133
 Sum of Mulliken charges =  -0.00000

 Dipole moment (field-independent basis, Debye):
    X=              0.0008    Y=              0.0218    Z=             -0.0708  Tot=              0.0741
 Quadrupole moment (field-independent basis, Debye-Ang):
   XX=            -12.2079   YY=            -12.2137   ZZ=            -15.6693
   XY=              0.0210   XZ=             -0.0000   YZ=             -0.0018

 Normal termination of Gaussian 16 at Wed Jan 11 18:47:58 2023.
