 Gaussian 16, Revision C.01,
 Gaussian 16:  ES64L-G16RevC.01  3-Jul-2019

 -------------------------------------------------------
 # WB97XD/6-311G SCF=XQC FORCE nosym pop=full guess=read
 -------------------------------------------------------

 -----------
 MD Step 999
 -----------
 Symbolic Z-matrix:
 Charge =  0 Multiplicity = 1

                          Input orientation:
 ---------------------------------------------------------------------
 Center     Atomic      Atomic             Coordinates (Angstroms)
 Number     Number       Type             X           Y           Z
 ---------------------------------------------------------------------
      1          6           0       -0.335726   -0.580346    0.005531
      2          1           0        0.215928   -1.533533   -0.017830
      3          1           0       -1.423686   -0.595068   -0.018870
      4          6           0        0.333198    0.577645    0.004633
      5          1           0       -0.162786    1.563913   -0.021142
      6          1           0        1.443916    0.640109   -0.020046
 ---------------------------------------------------------------------

 SCF Done:  E(RwB97XD) =  -78.5559143236     A.U. after    8 cycles

 Alpha  occ. eigenvalues --  -10.29040 -10.28852  -0.86374  -0.67179  -0.55873
 Alpha  occ. eigenvalues --   -0.50959  -0.43614  -0.35703
 Alpha virt. eigenvalues --    0.08004   0.14081   0.16431   0.16979   0.24076
 Alpha virt. eigenvalues --    0.37511   0.39257   0.39785   0.46363   0.48734
 Alpha virt. eigenvalues --    0.49364   0.59105   0.66520   0.68990   0.77262

 Mulliken charges:
               1
     1  C   -0.339730
     2  H    0.172279
     3  H    0.174380
     4  C   -0.345048
     5  H    0.169424
     6  H    0.168696
 Sum of Mulliken charges =  -0.00000

 Dipole moment (field-independent basis, Debye):
    X=              0.0004    Y=              0.0176    Z=             -0.0813  Tot=              0.0832
 Quadrupole moment (field-independent basis, Debye-Ang):
   XX=            -12.2042   YY=            -12.2174   ZZ=            -15.6762
   XY=              0.0183   XZ=             -0.0004   YZ=             -0.0039

 Normal termination of Gaussian 16 at Wed Jan 11 19:42:25 2023.
