 Gaussian 16, Revision C.01,
 Gaussian 16:  ES64L-G16RevC.01  3-Jul-2019

 -------------------------------------------------------
 # WB97XD/6-311G SCF=XQC FORCE nosym pop=full guess=read
 -------------------------------------------------------

 -----------
 MD Step 999
 -----------
 Symbolic Z-matrix:
 Charge =  0 Multiplicity = 1

                          Input orientation:
 ---------------------------------------------------------------------
 Center     Atomic      Atomic             Coordinates (Angstroms)
 Number     Number       Type             X           Y           Z
 ---------------------------------------------------------------------
      1          6           0       -0.334997   -0.579876    0.009454
      2          1           0        0.208794   -1.533029   -0.037883
      3          1           0       -1.420599   -0.597425   -0.039619
      4          6           0        0.333538    0.578076    0.008088
      5          1           0       -0.167445    1.562253   -0.042897
      6          1           0        1.444497    0.637512   -0.040762
 ---------------------------------------------------------------------

 SCF Done:  E(RwB97XD) =  -78.5556460788     A.U. after    8 cycles

 Alpha  occ. eigenvalues --  -10.29066 -10.28801  -0.86394  -0.67201  -0.55867
 Alpha  occ. eigenvalues --   -0.50993  -0.43609  -0.35708
 Alpha virt. eigenvalues --    0.07958   0.14089   0.16434   0.17004   0.24094
 Alpha virt. eigenvalues --    0.37659   0.39226   0.39732   0.46392   0.48823
 Alpha virt. eigenvalues --    0.49365   0.59112   0.66499   0.69009   0.77248

 Mulliken charges:
               1
     1  C   -0.339845
     2  H    0.172274
     3  H    0.174019
     4  C   -0.344485
     5  H    0.169319
     6  H    0.168719
 Sum of Mulliken charges =   0.00000

 Dipole moment (field-independent basis, Debye):
    X=             -0.0026    Y=              0.0118    Z=             -0.1622  Tot=              0.1627
 Quadrupole moment (field-independent basis, Debye-Ang):
   XX=            -12.2151   YY=            -12.2207   ZZ=            -15.6643
   XY=              0.0190   XZ=              0.0002   YZ=             -0.0056

 Normal termination of Gaussian 16 at Wed Jan 11 19:58:48 2023.
