 Gaussian 16, Revision C.01,
 Gaussian 16:  ES64L-G16RevC.01  3-Jul-2019

 -------------------------------------------------------
 # WB97XD/6-311G SCF=XQC FORCE nosym pop=full guess=read
 -------------------------------------------------------

 ------------
 MD Step 1000
 ------------
 Symbolic Z-matrix:
 Charge =  0 Multiplicity = 1

                          Input orientation:
 ---------------------------------------------------------------------
 Center     Atomic      Atomic             Coordinates (Angstroms)
 Number     Number       Type             X           Y           Z
 ---------------------------------------------------------------------
      1          6           0       -0.336218   -0.581253    0.006072
      2          1           0        0.215430   -1.530313   -0.020907
      3          1           0       -1.419497   -0.591003   -0.021760
      4          6           0        0.332893    0.577593    0.004752
      5          1           0       -0.160940    1.561073   -0.023844
      6          1           0        1.444118    0.643358   -0.022983
 ---------------------------------------------------------------------

 SCF Done:  E(RwB97XD) =  -78.5559227321     A.U. after    8 cycles

 Alpha  occ. eigenvalues --  -10.29008 -10.28780  -0.86382  -0.67257  -0.55942
 Alpha  occ. eigenvalues --   -0.50955  -0.43675  -0.35682
 Alpha virt. eigenvalues --    0.07984   0.14110   0.16493   0.17032   0.24089
 Alpha virt. eigenvalues --    0.37473   0.39333   0.39840   0.46438   0.48854
 Alpha virt. eigenvalues --    0.49383   0.59110   0.66582   0.69161   0.77304

 Mulliken charges:
               1
     1  C   -0.339705
     2  H    0.172777
     3  H    0.174748
     4  C   -0.345684
     5  H    0.169470
     6  H    0.168395
 Sum of Mulliken charges =   0.00000

 Dipole moment (field-independent basis, Debye):
    X=             -0.0021    Y=              0.0199    Z=             -0.0922  Tot=              0.0943
 Quadrupole moment (field-independent basis, Debye-Ang):
   XX=            -12.2033   YY=            -12.2122   ZZ=            -15.6660
   XY=              0.0174   XZ=             -0.0003   YZ=             -0.0029

 Normal termination of Gaussian 16 at Wed Jan 11 18:39:39 2023.
