 Gaussian 16, Revision C.01,
 Gaussian 16:  ES64L-G16RevC.01  3-Jul-2019

 -----------------------------------------------------------
 # FORCE TD=(singlets,nstates=5) BLYP/STO-3G nosymm pop=full
 -----------------------------------------------------------

 -------
 TitleMe
 -------
 Symbolic Z-matrix:
 Charge =  0 Multiplicity = 1

                          Input orientation:
 ---------------------------------------------------------------------
 Center     Atomic      Atomic             Coordinates (Angstroms)
 Number     Number       Type             X           Y           Z
 ---------------------------------------------------------------------
      1          6           0       -0.709730    0.000040   -0.000510
      2          6           0       -0.009380   -1.219200   -0.002240
      3          6           0        1.374580   -1.220380   -0.007900
      4          6           0        2.102169   -0.000010   -0.004000
      5          6           0        1.374590    1.220339   -0.007870
      6          6           0       -0.009400    1.219240   -0.002160
      7          1           0       -0.564210   -2.174109   -0.001040
      8          1           0        1.910179   -2.181789   -0.007340
      9          1           0        1.910109    2.181829   -0.007380
     10          1           0       -0.564150    2.174169   -0.000820
     11          7           0        3.479059   -0.000030    0.060180
     12          1           0        3.953438   -0.844810   -0.147320
     13          1           0        3.953428    0.844910   -0.146740
     14          7           0       -2.187629    0.000000    0.001460
     15          8           0       -2.773479    1.051310    0.001600
     16          8           0       -2.773489   -1.051350    0.001800
 ---------------------------------------------------------------------

 SCF Done:  E(RB-LYP) =  -485.455213133     A.U. after   17 cycles

 Excitation energies and oscillator strengths:

 Excited state symmetry could not be determined.
 Excited State   1:      Singlet-?Sym    2.7402 eV  452.46 nm  f=0.0000  <S**2>=0.000
      36 -> 37         0.70485
 This state for optimization and/or second-order correction.
 Total Energy, E(TD-HF/TD-DFT) =  -485.354511463
 Copying the excited state density for this state as the 1-particle RhoCI density.

 Excited state symmetry could not be determined.
 Excited State   2:      Singlet-?Sym    3.2807 eV  377.92 nm  f=0.0002  <S**2>=0.000
      36 -> 38         0.70673

 Excited state symmetry could not be determined.
 Excited State   3:      Singlet-?Sym    3.5517 eV  349.09 nm  f=0.0002  <S**2>=0.000
      35 -> 37         0.70543

 Excited state symmetry could not be determined.
 Excited State   4:      Singlet-?Sym    4.0620 eV  305.23 nm  f=0.0000  <S**2>=0.000
      35 -> 38         0.70706

 Excited state symmetry could not be determined.
 Excited State   5:      Singlet-?Sym    4.4388 eV  279.32 nm  f=0.0021  <S**2>=0.000
      33 -> 37         0.12264
      34 -> 38         0.69494

 Alpha  occ. eigenvalues --  -18.51557 -18.51550 -14.08738 -13.88513  -9.81219
 Alpha  occ. eigenvalues --   -9.76976  -9.75652  -9.75647  -9.74797  -9.74791
 Alpha  occ. eigenvalues --   -1.06241  -0.87332  -0.81494  -0.72677  -0.64584
 Alpha  occ. eigenvalues --   -0.63389  -0.55367  -0.51686  -0.46842  -0.44322
 Alpha  occ. eigenvalues --   -0.43274  -0.39009  -0.35911  -0.35095  -0.34826
 Alpha  occ. eigenvalues --   -0.33340  -0.30244  -0.29719  -0.28781  -0.25514
 Alpha  occ. eigenvalues --   -0.21353  -0.16888  -0.10914  -0.10481  -0.09081
 Alpha  occ. eigenvalues --   -0.06195
 Alpha virt. eigenvalues --    0.03218   0.05838   0.10010   0.21099   0.23679
 Alpha virt. eigenvalues --    0.28352   0.30776   0.32783   0.37192   0.37238
 Alpha virt. eigenvalues --    0.39250   0.41845   0.45816   0.47536   0.50759

 Mulliken charges:
               1
     1  C    0.038489
     2  C   -0.075130
     3  C   -0.094805
     4  C    0.091948
     5  C   -0.094803
     6  C   -0.075137
     7  H    0.095682
     8  H    0.073819
     9  H    0.073808
    10  H    0.095686
    11  N   -0.384989
    12  H    0.223745
    13  H    0.223741
    14  N    0.118480
    15  O   -0.155266
    16  O   -0.155268
 Sum of Mulliken charges =  -0.00000

 Dipole moment (field-independent basis, Debye):
    X=              5.6037    Y=              0.0003    Z=             -0.6938  Tot=              5.6465
 Quadrupole moment (field-independent basis, Debye-Ang):
   XX=            -47.3278   YY=            -49.6158   ZZ=            -53.3021
   XY=              0.0005   XZ=             -2.7440   YZ=              0.0013

 Normal termination of Gaussian 16 at Mon Dec 26 21:12:30 2022.
