 Gaussian 16, Revision C.01,
 Gaussian 16:  ES64L-G16RevC.01  3-Jul-2019

 -------------------------------------------------------
 # WB97XD/6-311G SCF=XQC FORCE nosym pop=full guess=read
 -------------------------------------------------------

 ------------
 MD Step 1000
 ------------
 Symbolic Z-matrix:
 Charge =  0 Multiplicity = 1

                          Input orientation:
 ---------------------------------------------------------------------
 Center     Atomic      Atomic             Coordinates (Angstroms)
 Number     Number       Type             X           Y           Z
 ---------------------------------------------------------------------
      1          6           0       -0.336135   -0.581857    0.005442
      2          1           0        0.214747   -1.528816   -0.017062
      3          1           0       -1.419780   -0.586122   -0.017148
      4          6           0        0.333563    0.577508    0.004346
      5          1           0       -0.163383    1.563992   -0.018797
      6          1           0        1.443917    0.647632   -0.018758
 ---------------------------------------------------------------------

 SCF Done:  E(RwB97XD) =  -78.5558652988     A.U. after    8 cycles

 Alpha  occ. eigenvalues --  -10.29045 -10.28775  -0.86367  -0.67244  -0.55950
 Alpha  occ. eigenvalues --   -0.50927  -0.43683  -0.35670
 Alpha virt. eigenvalues --    0.07975   0.14104   0.16488   0.17025   0.24078
 Alpha virt. eigenvalues --    0.37399   0.39351   0.39847   0.46424   0.48838
 Alpha virt. eigenvalues --    0.49390   0.59099   0.66583   0.69157   0.77262

 Mulliken charges:
               1
     1  C   -0.339692
     2  H    0.173362
     3  H    0.174888
     4  C   -0.346060
     5  H    0.168844
     6  H    0.168658
 Sum of Mulliken charges =   0.00000

 Dipole moment (field-independent basis, Debye):
    X=              0.0000    Y=              0.0187    Z=             -0.0758  Tot=              0.0781
 Quadrupole moment (field-independent basis, Debye-Ang):
   XX=            -12.2001   YY=            -12.2149   ZZ=            -15.6714
   XY=              0.0147   XZ=             -0.0011   YZ=             -0.0018

 Normal termination of Gaussian 16 at Wed Jan 11 18:36:37 2023.
