 Gaussian 16, Revision C.01,
 Gaussian 16:  ES64L-G16RevC.01  3-Jul-2019

 -------------------------------------------------------
 # WB97XD/6-311G SCF=XQC FORCE nosym pop=full guess=read
 -------------------------------------------------------

 -----------
 MD Step 999
 -----------
 Symbolic Z-matrix:
 Charge =  0 Multiplicity = 1

                          Input orientation:
 ---------------------------------------------------------------------
 Center     Atomic      Atomic             Coordinates (Angstroms)
 Number     Number       Type             X           Y           Z
 ---------------------------------------------------------------------
      1          6           0       -0.335585   -0.580730    0.005114
      2          1           0        0.211486   -1.528618   -0.016410
      3          1           0       -1.420240   -0.595732   -0.017144
      4          6           0        0.332977    0.577125    0.004271
      5          1           0       -0.165821    1.568888   -0.019060
      6          1           0        1.446680    0.639459   -0.018182
 ---------------------------------------------------------------------

 SCF Done:  E(RwB97XD) =  -78.5558363601     A.U. after    8 cycles

 Alpha  occ. eigenvalues --  -10.29119 -10.28751  -0.86386  -0.67181  -0.55893
 Alpha  occ. eigenvalues --   -0.50974  -0.43607  -0.35709
 Alpha virt. eigenvalues --    0.08012   0.14086   0.16433   0.16987   0.24073
 Alpha virt. eigenvalues --    0.37576   0.39251   0.39758   0.46318   0.48780
 Alpha virt. eigenvalues --    0.49361   0.59109   0.66509   0.69051   0.77185

 Mulliken charges:
               1
     1  C   -0.339756
     2  H    0.172963
     3  H    0.174696
     4  C   -0.345010
     5  H    0.168782
     6  H    0.168325
 Sum of Mulliken charges =  -0.00000

 Dipole moment (field-independent basis, Debye):
    X=             -0.0006    Y=              0.0092    Z=             -0.0741  Tot=              0.0747
 Quadrupole moment (field-independent basis, Debye-Ang):
   XX=            -12.2065   YY=            -12.2134   ZZ=            -15.6739
   XY=              0.0199   XZ=             -0.0003   YZ=             -0.0029

 Normal termination of Gaussian 16 at Wed Jan 11 18:37:45 2023.
