 Gaussian 16, Revision C.01,
 Gaussian 16:  ES64L-G16RevC.01  3-Jul-2019

 -------------------------------------------------------
 # WB97XD/6-311G SCF=XQC FORCE nosym pop=full guess=read
 -------------------------------------------------------

 -----------
 MD Step 999
 -----------
 Symbolic Z-matrix:
 Charge =  0 Multiplicity = 1

                          Input orientation:
 ---------------------------------------------------------------------
 Center     Atomic      Atomic             Coordinates (Angstroms)
 Number     Number       Type             X           Y           Z
 ---------------------------------------------------------------------
      1          6           0       -0.335074   -0.581118    0.006465
      2          1           0        0.207302   -1.531635   -0.022179
      3          1           0       -1.421783   -0.587671   -0.023046
      4          6           0        0.333494    0.576844    0.005047
      5          1           0       -0.170487    1.564580   -0.025574
      6          1           0        1.445422    0.647256   -0.024759
 ---------------------------------------------------------------------

 SCF Done:  E(RwB97XD) =  -78.5557757084     A.U. after    8 cycles

 Alpha  occ. eigenvalues --  -10.29098 -10.28776  -0.86388  -0.67179  -0.55892
 Alpha  occ. eigenvalues --   -0.50967  -0.43608  -0.35707
 Alpha virt. eigenvalues --    0.08000   0.14086   0.16431   0.16989   0.24076
 Alpha virt. eigenvalues --    0.37538   0.39257   0.39782   0.46338   0.48787
 Alpha virt. eigenvalues --    0.49362   0.59108   0.66510   0.69041   0.77204

 Mulliken charges:
               1
     1  C   -0.339655
     2  H    0.173375
     3  H    0.174188
     4  C   -0.345181
     5  H    0.168433
     6  H    0.168840
 Sum of Mulliken charges =  -0.00000

 Dipole moment (field-independent basis, Debye):
    X=             -0.0012    Y=              0.0129    Z=             -0.0981  Tot=              0.0990
 Quadrupole moment (field-independent basis, Debye-Ang):
   XX=            -12.2087   YY=            -12.2157   ZZ=            -15.6729
   XY=              0.0171   XZ=             -0.0003   YZ=             -0.0038

 Normal termination of Gaussian 16 at Wed Jan 11 18:44:18 2023.
