 Gaussian 16, Revision C.01,
 Gaussian 16:  ES64L-G16RevC.01  3-Jul-2019

 -------------------------------------------------------
 # WB97XD/6-311G SCF=XQC FORCE nosym pop=full guess=read
 -------------------------------------------------------

 ------------
 MD Step 1000
 ------------
 Symbolic Z-matrix:
 Charge =  0 Multiplicity = 1

                          Input orientation:
 ---------------------------------------------------------------------
 Center     Atomic      Atomic             Coordinates (Angstroms)
 Number     Number       Type             X           Y           Z
 ---------------------------------------------------------------------
      1          6           0       -0.337147   -0.583006    0.004266
      2          1           0        0.232572   -1.526339   -0.006711
      3          1           0       -1.424198   -0.575552   -0.007343
      4          6           0        0.333039    0.577386    0.002852
      5          1           0       -0.145753    1.564156   -0.009739
      6          1           0        1.438244    0.656621   -0.009121
 ---------------------------------------------------------------------

 SCF Done:  E(RwB97XD) =  -78.5555032924     A.U. after    8 cycles

 Alpha  occ. eigenvalues --  -10.28951 -10.28863  -0.86351  -0.67293  -0.55981
 Alpha  occ. eigenvalues --   -0.50877  -0.43693  -0.35650
 Alpha virt. eigenvalues --    0.07963   0.14097   0.16517   0.17024   0.24077
 Alpha virt. eigenvalues --    0.36967   0.39422   0.40184   0.46491   0.48867
 Alpha virt. eigenvalues --    0.49403   0.59090   0.66613   0.69189   0.77381

 Mulliken charges:
               1
     1  C   -0.339315
     2  H    0.173760
     3  H    0.175672
     4  C   -0.348288
     5  H    0.169619
     6  H    0.168553
 Sum of Mulliken charges =  -0.00000

 Dipole moment (field-independent basis, Debye):
    X=              0.0093    Y=              0.0381    Z=             -0.0392  Tot=              0.0554
 Quadrupole moment (field-independent basis, Debye-Ang):
   XX=            -12.1970   YY=            -12.2151   ZZ=            -15.6746
   XY=              0.0111   XZ=             -0.0008   YZ=             -0.0033

 Normal termination of Gaussian 16 at Wed Jan 11 16:36:40 2023.
