 Gaussian 16, Revision C.01,
 Gaussian 16:  ES64L-G16RevC.01  3-Jul-2019

 -------------------------------------------------------
 # WB97XD/6-311G SCF=XQC FORCE nosym pop=full guess=read
 -------------------------------------------------------

 -----------
 MD Step 999
 -----------
 Symbolic Z-matrix:
 Charge =  0 Multiplicity = 1

                          Input orientation:
 ---------------------------------------------------------------------
 Center     Atomic      Atomic             Coordinates (Angstroms)
 Number     Number       Type             X           Y           Z
 ---------------------------------------------------------------------
      1          6           0       -0.336707   -0.582598    0.002335
      2          1           0        0.221628   -1.521837    0.000473
      3          1           0       -1.417854   -0.582125   -0.000046
      4          6           0        0.332154    0.575929    0.001641
      5          1           0       -0.156760    1.574455   -0.002334
      6          1           0        1.451095    0.652816   -0.001622
 ---------------------------------------------------------------------

 SCF Done:  E(RwB97XD) =  -78.5552032170     A.U. after    8 cycles

 Alpha  occ. eigenvalues --  -10.29177 -10.28733  -0.86384  -0.67165  -0.55948
 Alpha  occ. eigenvalues --   -0.50927  -0.43576  -0.35701
 Alpha virt. eigenvalues --    0.08009   0.14068   0.16431   0.16971   0.24046
 Alpha virt. eigenvalues --    0.37246   0.39272   0.40012   0.46238   0.48824
 Alpha virt. eigenvalues --    0.49364   0.59095   0.66505   0.69091   0.77110

 Mulliken charges:
               1
     1  C   -0.339271
     2  H    0.174469
     3  H    0.176150
     4  C   -0.347038
     5  H    0.168264
     6  H    0.167424
 Sum of Mulliken charges =  -0.00000

 Dipole moment (field-independent basis, Debye):
    X=              0.0001    Y=              0.0178    Z=             -0.0094  Tot=              0.0202
 Quadrupole moment (field-independent basis, Debye-Ang):
   XX=            -12.2061   YY=            -12.2159   ZZ=            -15.6812
   XY=              0.0162   XZ=             -0.0009   YZ=             -0.0037

 Normal termination of Gaussian 16 at Wed Jan 11 16:35:50 2023.
