 Gaussian 16, Revision C.01,
 Gaussian 16:  ES64L-G16RevC.01  3-Jul-2019

 -------------------------------------------------------
 # WB97XD/6-311G SCF=XQC FORCE nosym pop=full guess=read
 -------------------------------------------------------

 ------------
 MD Step 1000
 ------------
 Symbolic Z-matrix:
 Charge =  0 Multiplicity = 1

                          Input orientation:
 ---------------------------------------------------------------------
 Center     Atomic      Atomic             Coordinates (Angstroms)
 Number     Number       Type             X           Y           Z
 ---------------------------------------------------------------------
      1          6           0       -0.336420   -0.583562    0.005931
      2          1           0        0.220033   -1.531723   -0.018962
      3          1           0       -1.427139   -0.573786   -0.019455
      4          6           0        0.333964    0.577507    0.004130
      5          1           0       -0.161630    1.563001   -0.020247
      6          1           0        1.439374    0.656030   -0.019842
 ---------------------------------------------------------------------

 SCF Done:  E(RwB97XD) =  -78.5555759681     A.U. after    8 cycles

 Alpha  occ. eigenvalues --  -10.29017 -10.28910  -0.86322  -0.67211  -0.55937
 Alpha  occ. eigenvalues --   -0.50840  -0.43695  -0.35642
 Alpha virt. eigenvalues --    0.07935   0.14072   0.16468   0.16998   0.24061
 Alpha virt. eigenvalues --    0.37101   0.39386   0.39954   0.46460   0.48759
 Alpha virt. eigenvalues --    0.49404   0.59073   0.66573   0.69055   0.77295

 Mulliken charges:
               1
     1  C   -0.339527
     2  H    0.173952
     3  H    0.174606
     4  C   -0.347164
     5  H    0.168808
     6  H    0.169325
 Sum of Mulliken charges =  -0.00000

 Dipole moment (field-independent basis, Debye):
    X=              0.0074    Y=              0.0295    Z=             -0.0820  Tot=              0.0875
 Quadrupole moment (field-independent basis, Debye-Ang):
   XX=            -12.2004   YY=            -12.2226   ZZ=            -15.6848
   XY=              0.0002   XZ=              0.0011   YZ=              0.0000

 Normal termination of Gaussian 16 at Wed Jan 11 18:47:33 2023.
