 Gaussian 16, Revision C.01,
 Gaussian 16:  ES64L-G16RevC.01  3-Jul-2019

 -------------------------------------------------------
 # WB97XD/6-311G SCF=XQC FORCE nosym pop=full guess=read
 -------------------------------------------------------

 -----------
 MD Step 999
 -----------
 Symbolic Z-matrix:
 Charge =  0 Multiplicity = 1

                          Input orientation:
 ---------------------------------------------------------------------
 Center     Atomic      Atomic             Coordinates (Angstroms)
 Number     Number       Type             X           Y           Z
 ---------------------------------------------------------------------
      1          6           0       -0.335935   -0.580623    0.005796
      2          1           0        0.214996   -1.529681   -0.019251
      3          1           0       -1.418324   -0.591803   -0.020061
      4          6           0        0.332264    0.576524    0.004477
      5          1           0       -0.160016    1.564482   -0.022296
      6          1           0        1.446435    0.645197   -0.021471
 ---------------------------------------------------------------------

 SCF Done:  E(RwB97XD) =  -78.5557787325     A.U. after    8 cycles

 Alpha  occ. eigenvalues --  -10.29049 -10.28752  -0.86414  -0.67223  -0.55912
 Alpha  occ. eigenvalues --   -0.51009  -0.43597  -0.35721
 Alpha virt. eigenvalues --    0.08024   0.14104   0.16457   0.17003   0.24088
 Alpha virt. eigenvalues --    0.37525   0.39253   0.39901   0.46342   0.48848
 Alpha virt. eigenvalues --    0.49357   0.59123   0.66533   0.69111   0.77251

 Mulliken charges:
               1
     1  C   -0.339445
     2  H    0.172878
     3  H    0.174956
     4  C   -0.345564
     5  H    0.169133
     6  H    0.168043
 Sum of Mulliken charges =  -0.00000

 Dipole moment (field-independent basis, Debye):
    X=             -0.0032    Y=              0.0181    Z=             -0.0858  Tot=              0.0877
 Quadrupole moment (field-independent basis, Debye-Ang):
   XX=            -12.2091   YY=            -12.2091   ZZ=            -15.6650
   XY=              0.0257   XZ=             -0.0005   YZ=             -0.0031

 Normal termination of Gaussian 16 at Wed Jan 11 18:39:20 2023.
