 Gaussian 16, Revision C.01,
 Gaussian 16:  ES64L-G16RevC.01  3-Jul-2019

 -------------------------------------------------------
 # WB97XD/6-311G SCF=XQC FORCE nosym pop=full guess=read
 -------------------------------------------------------

 ------------
 MD Step 1000
 ------------
 Symbolic Z-matrix:
 Charge =  0 Multiplicity = 1

                          Input orientation:
 ---------------------------------------------------------------------
 Center     Atomic      Atomic             Coordinates (Angstroms)
 Number     Number       Type             X           Y           Z
 ---------------------------------------------------------------------
      1          6           0       -0.336014   -0.581762    0.007397
      2          1           0        0.213413   -1.535628   -0.028421
      3          1           0       -1.424819   -0.589047   -0.028998
      4          6           0        0.334164    0.578743    0.006234
      5          1           0       -0.166201    1.559551   -0.031352
      6          1           0        1.442596    0.644053   -0.030705
 ---------------------------------------------------------------------

 SCF Done:  E(RwB97XD) =  -78.5557776768     A.U. after    8 cycles

 Alpha  occ. eigenvalues --  -10.29036 -10.28893  -0.86325  -0.67211  -0.55887
 Alpha  occ. eigenvalues --   -0.50895  -0.43687  -0.35652
 Alpha virt. eigenvalues --    0.07925   0.14079   0.16459   0.16999   0.24072
 Alpha virt. eigenvalues --    0.37420   0.39308   0.39755   0.46460   0.48735
 Alpha virt. eigenvalues --    0.49398   0.59078   0.66554   0.69003   0.77289

 Mulliken charges:
               1
     1  C   -0.339946
     2  H    0.172645
     3  H    0.174074
     4  C   -0.345433
     5  H    0.169476
     6  H    0.169184
 Sum of Mulliken charges =  -0.00000

 Dipole moment (field-independent basis, Debye):
    X=              0.0000    Y=              0.0209    Z=             -0.1216  Tot=              0.1234
 Quadrupole moment (field-independent basis, Debye-Ang):
   XX=            -12.2036   YY=            -12.2217   ZZ=            -15.6794
   XY=              0.0094   XZ=             -0.0010   YZ=             -0.0035

 Normal termination of Gaussian 16 at Wed Jan 11 19:42:29 2023.
