 Gaussian 16, Revision C.01,
 Gaussian 16:  ES64L-G16RevC.01  3-Jul-2019

 -------------------------------------------------------
 # WB97XD/6-311G SCF=XQC FORCE nosym pop=full guess=read
 -------------------------------------------------------

 ------------
 MD Step 1000
 ------------
 Symbolic Z-matrix:
 Charge =  0 Multiplicity = 1

                          Input orientation:
 ---------------------------------------------------------------------
 Center     Atomic      Atomic             Coordinates (Angstroms)
 Number     Number       Type             X           Y           Z
 ---------------------------------------------------------------------
      1          6           0       -0.337512   -0.584052    0.007618
      2          1           0        0.228747   -1.517881   -0.025465
      3          1           0       -1.420174   -0.574978   -0.026658
      4          6           0        0.332401    0.576127    0.004890
      5          1           0       -0.149803    1.570991   -0.029122
      6          1           0        1.442116    0.656283   -0.027819
 ---------------------------------------------------------------------

 SCF Done:  E(RwB97XD) =  -78.5550841422     A.U. after    8 cycles

 Alpha  occ. eigenvalues --  -10.29046 -10.28776  -0.86378  -0.67261  -0.56021
 Alpha  occ. eigenvalues --   -0.50879  -0.43662  -0.35660
 Alpha virt. eigenvalues --    0.07942   0.14095   0.16503   0.17033   0.24069
 Alpha virt. eigenvalues --    0.37013   0.39409   0.40163   0.46415   0.48954
 Alpha virt. eigenvalues --    0.49399   0.59092   0.66592   0.69224   0.77237

 Mulliken charges:
               1
     1  C   -0.339088
     2  H    0.174743
     3  H    0.176269
     4  C   -0.348534
     5  H    0.168597
     6  H    0.168012
 Sum of Mulliken charges =   0.00000

 Dipole moment (field-independent basis, Debye):
    X=              0.0092    Y=              0.0280    Z=             -0.1116  Tot=              0.1154
 Quadrupole moment (field-independent basis, Debye-Ang):
   XX=            -12.2021   YY=            -12.2244   ZZ=            -15.6703
   XY=              0.0083   XZ=              0.0009   YZ=             -0.0021

 Normal termination of Gaussian 16 at Wed Jan 11 18:36:53 2023.
