 Gaussian 16, Revision C.01,
 Gaussian 16:  ES64L-G16RevC.01  3-Jul-2019

 -------------------------------------------------------
 # WB97XD/6-311G SCF=XQC FORCE nosym pop=full guess=read
 -------------------------------------------------------

 ------------
 MD Step 1000
 ------------
 Symbolic Z-matrix:
 Charge =  0 Multiplicity = 1

                          Input orientation:
 ---------------------------------------------------------------------
 Center     Atomic      Atomic             Coordinates (Angstroms)
 Number     Number       Type             X           Y           Z
 ---------------------------------------------------------------------
      1          6           0       -0.337621   -0.583463    0.002502
      2          1           0        0.225019   -1.525581   -0.002407
      3          1           0       -1.419149   -0.577007   -0.002829
      4          6           0        0.332330    0.576244    0.001153
      5          1           0       -0.156038    1.566902   -0.002928
      6          1           0        1.445833    0.654326   -0.002776
 ---------------------------------------------------------------------

 SCF Done:  E(RwB97XD) =  -78.5554285792     A.U. after    8 cycles

 Alpha  occ. eigenvalues --  -10.29062 -10.28792  -0.86366  -0.67218  -0.55994
 Alpha  occ. eigenvalues --   -0.50869  -0.43665  -0.35667
 Alpha virt. eigenvalues --    0.07981   0.14081   0.16481   0.17011   0.24058
 Alpha virt. eigenvalues --    0.37108   0.39398   0.40022   0.46385   0.48847
 Alpha virt. eigenvalues --    0.49389   0.59091   0.66580   0.69165   0.77227

 Mulliken charges:
               1
     1  C   -0.339380
     2  H    0.174184
     3  H    0.175997
     4  C   -0.347564
     5  H    0.168742
     6  H    0.168020
 Sum of Mulliken charges =  -0.00000

 Dipole moment (field-independent basis, Debye):
    X=              0.0012    Y=              0.0273    Z=             -0.0152  Tot=              0.0312
 Quadrupole moment (field-independent basis, Debye-Ang):
   XX=            -12.1974   YY=            -12.2210   ZZ=            -15.6788
   XY=              0.0058   XZ=              0.0011   YZ=              0.0010

 Normal termination of Gaussian 16 at Wed Jan 11 18:38:25 2023.
