 Gaussian 16, Revision C.01,
 Gaussian 16:  ES64L-G16RevC.01  3-Jul-2019

 -------------------------------------------------------
 # WB97XD/6-311G SCF=XQC FORCE nosym pop=full guess=read
 -------------------------------------------------------

 ------------
 MD Step 1000
 ------------
 Symbolic Z-matrix:
 Charge =  0 Multiplicity = 1

                          Input orientation:
 ---------------------------------------------------------------------
 Center     Atomic      Atomic             Coordinates (Angstroms)
 Number     Number       Type             X           Y           Z
 ---------------------------------------------------------------------
      1          6           0       -0.336633   -0.581720    0.006073
      2          1           0        0.216979   -1.530333   -0.020596
      3          1           0       -1.418698   -0.588733   -0.020988
      4          6           0        0.332754    0.577342    0.004054
      5          1           0       -0.162836    1.563825   -0.021727
      6          1           0        1.446815    0.643446   -0.021320
 ---------------------------------------------------------------------

 SCF Done:  E(RwB97XD) =  -78.5557085122     A.U. after    8 cycles

 Alpha  occ. eigenvalues --  -10.29073 -10.28784  -0.86371  -0.67204  -0.55940
 Alpha  occ. eigenvalues --   -0.50913  -0.43661  -0.35681
 Alpha virt. eigenvalues --    0.07980   0.14083   0.16464   0.17011   0.24072
 Alpha virt. eigenvalues --    0.37411   0.39336   0.39806   0.46394   0.48809
 Alpha virt. eigenvalues --    0.49381   0.59099   0.66550   0.69103   0.77234

 Mulliken charges:
               1
     1  C   -0.339637
     2  H    0.172999
     3  H    0.175071
     4  C   -0.345828
     5  H    0.169175
     6  H    0.168221
 Sum of Mulliken charges =   0.00000

 Dipole moment (field-independent basis, Debye):
    X=             -0.0033    Y=              0.0191    Z=             -0.0870  Tot=              0.0892
 Quadrupole moment (field-independent basis, Debye-Ang):
   XX=            -12.2019   YY=            -12.2201   ZZ=            -15.6744
   XY=              0.0093   XZ=              0.0010   YZ=              0.0009

 Normal termination of Gaussian 16 at Wed Jan 11 16:36:41 2023.
