 Gaussian 16, Revision C.01,
 Gaussian 16:  ES64L-G16RevC.01  3-Jul-2019

 -------------------------------------------------------
 # WB97XD/6-311G SCF=XQC FORCE nosym pop=full guess=read
 -------------------------------------------------------

 -----------
 MD Step 999
 -----------
 Symbolic Z-matrix:
 Charge =  0 Multiplicity = 1

                          Input orientation:
 ---------------------------------------------------------------------
 Center     Atomic      Atomic             Coordinates (Angstroms)
 Number     Number       Type             X           Y           Z
 ---------------------------------------------------------------------
      1          6           0       -0.335106   -0.579722    0.006872
      2          1           0        0.214102   -1.533636   -0.023163
      3          1           0       -1.424711   -0.598510   -0.025451
      4          6           0        0.333221    0.577944    0.005724
      5          1           0       -0.165318    1.564980   -0.028278
      6          1           0        1.445618    0.635605   -0.025957
 ---------------------------------------------------------------------

 SCF Done:  E(RwB97XD) =  -78.5558042742     A.U. after    8 cycles

 Alpha  occ. eigenvalues --  -10.29077 -10.28859  -0.86379  -0.67134  -0.55848
 Alpha  occ. eigenvalues --   -0.50958  -0.43585  -0.35717
 Alpha virt. eigenvalues --    0.08003   0.14064   0.16398   0.16962   0.24073
 Alpha virt. eigenvalues --    0.37581   0.39223   0.39709   0.46329   0.48702
 Alpha virt. eigenvalues --    0.49353   0.59106   0.66478   0.68917   0.77220

 Mulliken charges:
               1
     1  C   -0.339800
     2  H    0.172121
     3  H    0.174080
     4  C   -0.344487
     5  H    0.169497
     6  H    0.168590
 Sum of Mulliken charges =  -0.00000

 Dipole moment (field-independent basis, Debye):
    X=             -0.0001    Y=              0.0132    Z=             -0.1059  Tot=              0.1067
 Quadrupole moment (field-independent basis, Debye-Ang):
   XX=            -12.2088   YY=            -12.2217   ZZ=            -15.6783
   XY=              0.0142   XZ=              0.0010   YZ=             -0.0057

 Normal termination of Gaussian 16 at Wed Jan 11 16:32:39 2023.
