 Gaussian 16, Revision C.01,
 Gaussian 16:  ES64L-G16RevC.01  3-Jul-2019

 -------------------------------------------------------
 # WB97XD/6-311G SCF=XQC FORCE nosym pop=full guess=read
 -------------------------------------------------------

 ------------
 MD Step 1000
 ------------
 Symbolic Z-matrix:
 Charge =  0 Multiplicity = 1

                          Input orientation:
 ---------------------------------------------------------------------
 Center     Atomic      Atomic             Coordinates (Angstroms)
 Number     Number       Type             X           Y           Z
 ---------------------------------------------------------------------
      1          6           0       -0.335802   -0.581519    0.008518
      2          1           0        0.214245   -1.526699   -0.029430
      3          1           0       -1.420122   -0.589299   -0.031785
      4          6           0        0.333430    0.577564    0.006593
      5          1           0       -0.163375    1.566398   -0.036712
      6          1           0        1.445366    0.644581   -0.034273
 ---------------------------------------------------------------------

 SCF Done:  E(RwB97XD) =  -78.5555497990     A.U. after    8 cycles

 Alpha  occ. eigenvalues --  -10.29092 -10.28772  -0.86376  -0.67214  -0.55922
 Alpha  occ. eigenvalues --   -0.50942  -0.43642  -0.35683
 Alpha virt. eigenvalues --    0.07952   0.14089   0.16458   0.17014   0.24079
 Alpha virt. eigenvalues --    0.37456   0.39295   0.39831   0.46391   0.48848
 Alpha virt. eigenvalues --    0.49380   0.59100   0.66533   0.69089   0.77216

 Mulliken charges:
               1
     1  C   -0.339597
     2  H    0.173344
     3  H    0.174819
     4  C   -0.345767
     5  H    0.168808
     6  H    0.168392
 Sum of Mulliken charges =   0.00000

 Dipole moment (field-independent basis, Debye):
    X=              0.0007    Y=              0.0146    Z=             -0.1345  Tot=              0.1353
 Quadrupole moment (field-independent basis, Debye-Ang):
   XX=            -12.2080   YY=            -12.2213   ZZ=            -15.6696
   XY=              0.0144   XZ=             -0.0004   YZ=             -0.0087

 Normal termination of Gaussian 16 at Wed Jan 11 19:42:17 2023.
