 Gaussian 16, Revision C.01,
 Gaussian 16:  ES64L-G16RevC.01  3-Jul-2019

 -------------------------------------------------------
 # WB97XD/6-311G SCF=XQC FORCE nosym pop=full guess=read
 -------------------------------------------------------

 ------------
 MD Step 1000
 ------------
 Symbolic Z-matrix:
 Charge =  0 Multiplicity = 1

                          Input orientation:
 ---------------------------------------------------------------------
 Center     Atomic      Atomic             Coordinates (Angstroms)
 Number     Number       Type             X           Y           Z
 ---------------------------------------------------------------------
      1          6           0       -0.337060   -0.582017    0.007259
      2          1           0        0.221733   -1.530450   -0.028573
      3          1           0       -1.423381   -0.590703   -0.030600
      4          6           0        0.332538    0.577528    0.005605
      5          1           0       -0.156516    1.561754   -0.033279
      6          1           0        1.441969    0.642806   -0.030908
 ---------------------------------------------------------------------

 SCF Done:  E(RwB97XD) =  -78.5556514923     A.U. after    8 cycles

 Alpha  occ. eigenvalues --  -10.29000 -10.28860  -0.86361  -0.67236  -0.55920
 Alpha  occ. eigenvalues --   -0.50921  -0.43666  -0.35671
 Alpha virt. eigenvalues --    0.07948   0.14088   0.16475   0.17015   0.24082
 Alpha virt. eigenvalues --    0.37349   0.39324   0.39895   0.46451   0.48818
 Alpha virt. eigenvalues --    0.49389   0.59095   0.66560   0.69074   0.77316

 Mulliken charges:
               1
     1  C   -0.339548
     2  H    0.172610
     3  H    0.174832
     4  C   -0.346119
     5  H    0.169779
     6  H    0.168446
 Sum of Mulliken charges =  -0.00000

 Dipole moment (field-independent basis, Debye):
    X=              0.0023    Y=              0.0247    Z=             -0.1237  Tot=              0.1261
 Quadrupole moment (field-independent basis, Debye-Ang):
   XX=            -12.2039   YY=            -12.2215   ZZ=            -15.6712
   XY=              0.0131   XZ=              0.0013   YZ=             -0.0045

 Normal termination of Gaussian 16 at Wed Jan 11 18:38:43 2023.
