 Gaussian 16, Revision C.01,
 Gaussian 16:  ES64L-G16RevC.01  3-Jul-2019

 -------------------------------------------------------
 # WB97XD/6-311G SCF=XQC FORCE nosym pop=full guess=read
 -------------------------------------------------------

 -----------
 MD Step 999
 -----------
 Symbolic Z-matrix:
 Charge =  0 Multiplicity = 1

                          Input orientation:
 ---------------------------------------------------------------------
 Center     Atomic      Atomic             Coordinates (Angstroms)
 Number     Number       Type             X           Y           Z
 ---------------------------------------------------------------------
      1          6           0       -0.336759   -0.582153    0.006935
      2          1           0        0.226448   -1.522359   -0.022480
      3          1           0       -1.421056   -0.584916   -0.024626
      4          6           0        0.332352    0.576550    0.005087
      5          1           0       -0.150697    1.569792   -0.026967
      6          1           0        1.442181    0.648620   -0.024818
 ---------------------------------------------------------------------

 SCF Done:  E(RwB97XD) =  -78.5554617709     A.U. after    8 cycles

 Alpha  occ. eigenvalues --  -10.29024 -10.28795  -0.86392  -0.67240  -0.55960
 Alpha  occ. eigenvalues --   -0.50939  -0.43629  -0.35689
 Alpha virt. eigenvalues --    0.07981   0.14097   0.16478   0.17015   0.24079
 Alpha virt. eigenvalues --    0.37225   0.39335   0.40061   0.46390   0.48889
 Alpha virt. eigenvalues --    0.49378   0.59107   0.66563   0.69146   0.77269

 Mulliken charges:
               1
     1  C   -0.339164
     2  H    0.173599
     3  H    0.175666
     4  C   -0.347182
     5  H    0.169058
     6  H    0.168023
 Sum of Mulliken charges =  -0.00000

 Dipole moment (field-independent basis, Debye):
    X=              0.0071    Y=              0.0243    Z=             -0.1020  Tot=              0.1051
 Quadrupole moment (field-independent basis, Debye-Ang):
   XX=            -12.2045   YY=            -12.2190   ZZ=            -15.6685
   XY=              0.0167   XZ=              0.0016   YZ=             -0.0038

 Normal termination of Gaussian 16 at Wed Jan 11 18:31:44 2023.
