 Gaussian 16, Revision C.01,
 Gaussian 16:  ES64L-G16RevC.01  3-Jul-2019

 -------------------------------------------------------
 # WB97XD/6-311G SCF=XQC FORCE nosym pop=full guess=read
 -------------------------------------------------------

 ------------
 MD Step 1000
 ------------
 Symbolic Z-matrix:
 Charge =  0 Multiplicity = 1

                          Input orientation:
 ---------------------------------------------------------------------
 Center     Atomic      Atomic             Coordinates (Angstroms)
 Number     Number       Type             X           Y           Z
 ---------------------------------------------------------------------
      1          6           0       -0.335994   -0.580481    0.008383
      2          1           0        0.212797   -1.529025   -0.031638
      3          1           0       -1.418033   -0.600003   -0.034400
      4          6           0        0.332989    0.578096    0.006566
      5          1           0       -0.165692    1.565723   -0.036641
      6          1           0        1.448490    0.633478   -0.033687
 ---------------------------------------------------------------------

 SCF Done:  E(RwB97XD) =  -78.5556054322     A.U. after    8 cycles

 Alpha  occ. eigenvalues --  -10.29124 -10.28756  -0.86380  -0.67188  -0.55899
 Alpha  occ. eigenvalues --   -0.50949  -0.43632  -0.35694
 Alpha virt. eigenvalues --    0.07962   0.14076   0.16441   0.17007   0.24080
 Alpha virt. eigenvalues --    0.37610   0.39267   0.39689   0.46374   0.48812
 Alpha virt. eigenvalues --    0.49372   0.59103   0.66502   0.69046   0.77191

 Mulliken charges:
               1
     1  C   -0.339891
     2  H    0.172399
     3  H    0.174772
     4  C   -0.344738
     5  H    0.169360
     6  H    0.168097
 Sum of Mulliken charges =   0.00000

 Dipole moment (field-independent basis, Debye):
    X=             -0.0043    Y=              0.0091    Z=             -0.1377  Tot=              0.1380
 Quadrupole moment (field-independent basis, Debye-Ang):
   XX=            -12.2082   YY=            -12.2235   ZZ=            -15.6703
   XY=              0.0134   XZ=              0.0029   YZ=             -0.0038

 Normal termination of Gaussian 16 at Wed Jan 11 18:46:47 2023.
