 Gaussian 16, Revision C.01,
 Gaussian 16:  ES64L-G16RevC.01  3-Jul-2019

 -------------------------------------------------------
 # WB97XD/6-311G SCF=XQC FORCE nosym pop=full guess=read
 -------------------------------------------------------

 -----------
 MD Step 999
 -----------
 Symbolic Z-matrix:
 Charge =  0 Multiplicity = 1

                          Input orientation:
 ---------------------------------------------------------------------
 Center     Atomic      Atomic             Coordinates (Angstroms)
 Number     Number       Type             X           Y           Z
 ---------------------------------------------------------------------
      1          6           0       -0.335482   -0.580876    0.008008
      2          1           0        0.214494   -1.526406   -0.026296
      3          1           0       -1.419866   -0.589573   -0.028614
      4          6           0        0.332800    0.576466    0.006065
      5          1           0       -0.161775    1.569360   -0.033736
      6          1           0        1.446803    0.646872   -0.031341
 ---------------------------------------------------------------------

 SCF Done:  E(RwB97XD) =  -78.5554534444     A.U. after    8 cycles

 Alpha  occ. eigenvalues --  -10.29114 -10.28756  -0.86408  -0.67182  -0.55894
 Alpha  occ. eigenvalues --   -0.50995  -0.43566  -0.35722
 Alpha virt. eigenvalues --    0.07999   0.14085   0.16424   0.16985   0.24078
 Alpha virt. eigenvalues --    0.37490   0.39221   0.39905   0.46298   0.48837
 Alpha virt. eigenvalues --    0.49354   0.59114   0.66490   0.69043   0.77182

 Mulliken charges:
               1
     1  C   -0.339328
     2  H    0.173421
     3  H    0.174959
     4  C   -0.345704
     5  H    0.168530
     6  H    0.168123
 Sum of Mulliken charges =   0.00000

 Dipole moment (field-independent basis, Debye):
    X=              0.0006    Y=              0.0139    Z=             -0.1224  Tot=              0.1232
 Quadrupole moment (field-independent basis, Debye-Ang):
   XX=            -12.2128   YY=            -12.2173   ZZ=            -15.6689
   XY=              0.0227   XZ=             -0.0007   YZ=             -0.0090

 Normal termination of Gaussian 16 at Wed Jan 11 19:42:13 2023.
