 Gaussian 16, Revision C.01,
 Gaussian 16:  ES64L-G16RevC.01  3-Jul-2019

 -------------------------------------------------------
 # WB97XD/6-311G SCF=XQC FORCE nosym pop=full guess=read
 -------------------------------------------------------

 -----------
 MD Step 999
 -----------
 Symbolic Z-matrix:
 Charge =  0 Multiplicity = 1

                          Input orientation:
 ---------------------------------------------------------------------
 Center     Atomic      Atomic             Coordinates (Angstroms)
 Number     Number       Type             X           Y           Z
 ---------------------------------------------------------------------
      1          6           0       -0.337060   -0.582450    0.004395
      2          1           0        0.232194   -1.525384   -0.010475
      3          1           0       -1.424454   -0.577004   -0.011717
      4          6           0        0.331771    0.575746    0.003124
      5          1           0       -0.143689    1.562785   -0.015629
      6          1           0        1.436318    0.656839   -0.014426
 ---------------------------------------------------------------------

 SCF Done:  E(RwB97XD) =  -78.5555348232     A.U. after    8 cycles

 Alpha  occ. eigenvalues --  -10.28910 -10.28816  -0.86411  -0.67303  -0.55986
 Alpha  occ. eigenvalues --   -0.50947  -0.43643  -0.35694
 Alpha virt. eigenvalues --    0.08014   0.14114   0.16514   0.17032   0.24098
 Alpha virt. eigenvalues --    0.37032   0.39399   0.40267   0.46463   0.48944
 Alpha virt. eigenvalues --    0.49376   0.59122   0.66597   0.69239   0.77416

 Mulliken charges:
               1
     1  C   -0.339002
     2  H    0.173608
     3  H    0.175553
     4  C   -0.348192
     5  H    0.169639
     6  H    0.168393
 Sum of Mulliken charges =  -0.00000

 Dipole moment (field-independent basis, Debye):
    X=              0.0101    Y=              0.0389    Z=             -0.0558  Tot=              0.0688
 Quadrupole moment (field-independent basis, Debye-Ang):
   XX=            -12.2013   YY=            -12.2118   ZZ=            -15.6624
   XY=              0.0186   XZ=             -0.0017   YZ=             -0.0069

 Normal termination of Gaussian 16 at Wed Jan 11 18:35:21 2023.
