 Gaussian 16, Revision C.01,
 Gaussian 16:  ES64L-G16RevC.01  3-Jul-2019

 -------------------------------------------------------
 # WB97XD/6-311G SCF=XQC FORCE nosym pop=full guess=read
 -------------------------------------------------------

 -----------
 MD Step 999
 -----------
 Symbolic Z-matrix:
 Charge =  0 Multiplicity = 1

                          Input orientation:
 ---------------------------------------------------------------------
 Center     Atomic      Atomic             Coordinates (Angstroms)
 Number     Number       Type             X           Y           Z
 ---------------------------------------------------------------------
      1          6           0       -0.335347   -0.579697    0.006347
      2          1           0        0.212385   -1.530182   -0.022027
      3          1           0       -1.419967   -0.599974   -0.023740
      4          6           0        0.332620    0.577212    0.005412
      5          1           0       -0.163946    1.566890   -0.026389
      6          1           0        1.447457    0.636316   -0.024516
 ---------------------------------------------------------------------

 SCF Done:  E(RwB97XD) =  -78.5558077900     A.U. after    8 cycles

 Alpha  occ. eigenvalues --  -10.29097 -10.28764  -0.86407  -0.67174  -0.55872
 Alpha  occ. eigenvalues --   -0.51006  -0.43576  -0.35729
 Alpha virt. eigenvalues --    0.08024   0.14085   0.16421   0.16982   0.24083
 Alpha virt. eigenvalues --    0.37647   0.39213   0.39759   0.46309   0.48783
 Alpha virt. eigenvalues --    0.49348   0.59120   0.66488   0.69017   0.77205

 Mulliken charges:
               1
     1  C   -0.339719
     2  H    0.172383
     3  H    0.174578
     4  C   -0.344593
     5  H    0.169229
     6  H    0.168123
 Sum of Mulliken charges =  -0.00000

 Dipole moment (field-independent basis, Debye):
    X=             -0.0027    Y=              0.0100    Z=             -0.0993  Tot=              0.0999
 Quadrupole moment (field-independent basis, Debye-Ang):
   XX=            -12.2106   YY=            -12.2139   ZZ=            -15.6696
   XY=              0.0232   XZ=              0.0003   YZ=             -0.0049

 Normal termination of Gaussian 16 at Wed Jan 11 16:32:50 2023.
