 Gaussian 16, Revision C.01,
 Gaussian 16:  ES64L-G16RevC.01  3-Jul-2019

 -------------------------------------------------------
 # WB97XD/6-311G SCF=XQC FORCE nosym pop=full guess=read
 -------------------------------------------------------

 ------------
 MD Step 1000
 ------------
 Symbolic Z-matrix:
 Charge =  0 Multiplicity = 1

                          Input orientation:
 ---------------------------------------------------------------------
 Center     Atomic      Atomic             Coordinates (Angstroms)
 Number     Number       Type             X           Y           Z
 ---------------------------------------------------------------------
      1          6           0       -0.337478   -0.582813    0.004129
      2          1           0        0.225835   -1.527688   -0.011004
      3          1           0       -1.421527   -0.583251   -0.011685
      4          6           0        0.332563    0.577195    0.002734
      5          1           0       -0.154681    1.564272   -0.012409
      6          1           0        1.443750    0.648418   -0.011872
 ---------------------------------------------------------------------

 SCF Done:  E(RwB97XD) =  -78.5556470582     A.U. after    8 cycles

 Alpha  occ. eigenvalues --  -10.29015 -10.28837  -0.86353  -0.67234  -0.55970
 Alpha  occ. eigenvalues --   -0.50874  -0.43688  -0.35659
 Alpha virt. eigenvalues --    0.07969   0.14085   0.16489   0.17016   0.24067
 Alpha virt. eigenvalues --    0.37177   0.39394   0.39960   0.46437   0.48817
 Alpha virt. eigenvalues --    0.49395   0.59090   0.66589   0.69136   0.77287

 Mulliken charges:
               1
     1  C   -0.339505
     2  H    0.173375
     3  H    0.175540
     4  C   -0.347026
     5  H    0.169406
     6  H    0.168210
 Sum of Mulliken charges =  -0.00000

 Dipole moment (field-independent basis, Debye):
    X=              0.0023    Y=              0.0278    Z=             -0.0505  Tot=              0.0577
 Quadrupole moment (field-independent basis, Debye-Ang):
   XX=            -12.1961   YY=            -12.2209   ZZ=            -15.6777
   XY=              0.0071   XZ=              0.0009   YZ=             -0.0003

 Normal termination of Gaussian 16 at Wed Jan 11 18:34:02 2023.
