 Gaussian 16, Revision C.01,
 Gaussian 16:  ES64L-G16RevC.01  3-Jul-2019

 -------------------------------------------------------
 # WB97XD/6-311G SCF=XQC FORCE nosym pop=full guess=read
 -------------------------------------------------------

 -----------
 MD Step 999
 -----------
 Symbolic Z-matrix:
 Charge =  0 Multiplicity = 1

                          Input orientation:
 ---------------------------------------------------------------------
 Center     Atomic      Atomic             Coordinates (Angstroms)
 Number     Number       Type             X           Y           Z
 ---------------------------------------------------------------------
      1          6           0       -0.336641   -0.581784    0.003885
      2          1           0        0.224328   -1.528451   -0.009476
      3          1           0       -1.423257   -0.584176   -0.010181
      4          6           0        0.332067    0.576077    0.002582
      5          1           0       -0.151532    1.564350   -0.011487
      6          1           0        1.440023    0.651330   -0.010858
 ---------------------------------------------------------------------

 SCF Done:  E(RwB97XD) =  -78.5557766531     A.U. after    8 cycles

 Alpha  occ. eigenvalues --  -10.28956 -10.28830  -0.86400  -0.67254  -0.55938
 Alpha  occ. eigenvalues --   -0.50972  -0.43622  -0.35703
 Alpha virt. eigenvalues --    0.08021   0.14108   0.16481   0.17008   0.24088
 Alpha virt. eigenvalues --    0.37255   0.39321   0.40086   0.46399   0.48858
 Alpha virt. eigenvalues --    0.49368   0.59117   0.66572   0.69143   0.77339

 Mulliken charges:
               1
     1  C   -0.339199
     2  H    0.173193
     3  H    0.175151
     4  C   -0.346898
     5  H    0.169354
     6  H    0.168399
 Sum of Mulliken charges =  -0.00000

 Dipole moment (field-independent basis, Debye):
    X=              0.0055    Y=              0.0294    Z=             -0.0456  Tot=              0.0545
 Quadrupole moment (field-independent basis, Debye-Ang):
   XX=            -12.2037   YY=            -12.2095   ZZ=            -15.6674
   XY=              0.0224   XZ=              0.0003   YZ=             -0.0015

 Normal termination of Gaussian 16 at Wed Jan 11 19:40:57 2023.
