 Gaussian 16, Revision C.01,
 Gaussian 16:  ES64L-G16RevC.01  3-Jul-2019

 -------------------------------------------------------
 # WB97XD/6-311G SCF=XQC FORCE nosym pop=full guess=read
 -------------------------------------------------------

 -----------
 MD Step 999
 -----------
 Symbolic Z-matrix:
 Charge =  0 Multiplicity = 1

                          Input orientation:
 ---------------------------------------------------------------------
 Center     Atomic      Atomic             Coordinates (Angstroms)
 Number     Number       Type             X           Y           Z
 ---------------------------------------------------------------------
      1          6           0       -0.335438   -0.579887    0.007638
      2          1           0        0.217469   -1.532244   -0.026718
      3          1           0       -1.424311   -0.596625   -0.029227
      4          6           0        0.333243    0.577919    0.006331
      5          1           0       -0.160935    1.562787   -0.032761
      6          1           0        1.441413    0.637015   -0.030268
 ---------------------------------------------------------------------

 SCF Done:  E(RwB97XD) =  -78.5558683740     A.U. after    8 cycles

 Alpha  occ. eigenvalues --  -10.28999 -10.28855  -0.86390  -0.67193  -0.55886
 Alpha  occ. eigenvalues --   -0.50964  -0.43623  -0.35707
 Alpha virt. eigenvalues --    0.07991   0.14087   0.16441   0.17000   0.24090
 Alpha virt. eigenvalues --    0.37529   0.39280   0.39784   0.46403   0.48788
 Alpha virt. eigenvalues --    0.49364   0.59113   0.66522   0.69022   0.77303

 Mulliken charges:
               1
     1  C   -0.339696
     2  H    0.172016
     3  H    0.174198
     4  C   -0.344960
     5  H    0.169686
     6  H    0.168756
 Sum of Mulliken charges =   0.00000

 Dipole moment (field-independent basis, Debye):
    X=              0.0027    Y=              0.0180    Z=             -0.1216  Tot=              0.1229
 Quadrupole moment (field-independent basis, Debye-Ang):
   XX=            -12.2063   YY=            -12.2218   ZZ=            -15.6691
   XY=              0.0156   XZ=              0.0004   YZ=             -0.0071

 Normal termination of Gaussian 16 at Wed Jan 11 18:35:17 2023.
