 Gaussian 16, Revision C.01,
 Gaussian 16:  ES64L-G16RevC.01  3-Jul-2019

 -------------------------------------------------------
 # WB97XD/6-311G SCF=XQC FORCE nosym pop=full guess=read
 -------------------------------------------------------

 ------------
 MD Step 1000
 ------------
 Symbolic Z-matrix:
 Charge =  0 Multiplicity = 1

                          Input orientation:
 ---------------------------------------------------------------------
 Center     Atomic      Atomic             Coordinates (Angstroms)
 Number     Number       Type             X           Y           Z
 ---------------------------------------------------------------------
      1          6           0       -0.336940   -0.583168    0.002672
      2          1           0        0.221421   -1.522738   -0.001614
      3          1           0       -1.419235   -0.582101   -0.002155
      4          6           0        0.332849    0.577078    0.001994
      5          1           0       -0.158550    1.571101   -0.004351
      6          1           0        1.448986    0.650180   -0.003602
 ---------------------------------------------------------------------

 SCF Done:  E(RwB97XD) =  -78.5554348831     A.U. after    8 cycles

 Alpha  occ. eigenvalues --  -10.29141 -10.28762  -0.86349  -0.67195  -0.55970
 Alpha  occ. eigenvalues --   -0.50872  -0.43658  -0.35662
 Alpha virt. eigenvalues --    0.07970   0.14074   0.16465   0.16998   0.24048
 Alpha virt. eigenvalues --    0.37213   0.39352   0.39925   0.46339   0.48813
 Alpha virt. eigenvalues --    0.49391   0.59081   0.66555   0.69125   0.77153

 Mulliken charges:
               1
     1  C   -0.339547
     2  H    0.174313
     3  H    0.175880
     4  C   -0.347029
     5  H    0.168587
     6  H    0.167797
 Sum of Mulliken charges =   0.00000

 Dipole moment (field-independent basis, Debye):
    X=              0.0010    Y=              0.0188    Z=             -0.0174  Tot=              0.0257
 Quadrupole moment (field-independent basis, Debye-Ang):
   XX=            -12.1997   YY=            -12.2188   ZZ=            -15.6833
   XY=              0.0075   XZ=             -0.0008   YZ=             -0.0036

 Normal termination of Gaussian 16 at Wed Jan 11 16:36:12 2023.
