 Gaussian 16, Revision C.01,
 Gaussian 16:  ES64L-G16RevC.01  3-Jul-2019

 -------------------------------------------------------
 # WB97XD/6-311G SCF=XQC FORCE nosym pop=full guess=read
 -------------------------------------------------------

 -----------
 MD Step 999
 -----------
 Symbolic Z-matrix:
 Charge =  0 Multiplicity = 1

                          Input orientation:
 ---------------------------------------------------------------------
 Center     Atomic      Atomic             Coordinates (Angstroms)
 Number     Number       Type             X           Y           Z
 ---------------------------------------------------------------------
      1          6           0       -0.335266   -0.580917    0.004767
      2          1           0        0.209418   -1.527445   -0.012066
      3          1           0       -1.420033   -0.590472   -0.013163
      4          6           0        0.333218    0.576755    0.003341
      5          1           0       -0.169006    1.565894   -0.015631
      6          1           0        1.445223    0.642838   -0.014564
 ---------------------------------------------------------------------

 SCF Done:  E(RwB97XD) =  -78.5559729106     A.U. after    8 cycles

 Alpha  occ. eigenvalues --  -10.29082 -10.28716  -0.86405  -0.67198  -0.55942
 Alpha  occ. eigenvalues --   -0.50959  -0.43642  -0.35708
 Alpha virt. eigenvalues --    0.08026   0.14100   0.16458   0.17018   0.24082
 Alpha virt. eigenvalues --    0.37551   0.39328   0.39747   0.46357   0.48840
 Alpha virt. eigenvalues --    0.49363   0.59120   0.66539   0.69152   0.77219

 Mulliken charges:
               1
     1  C   -0.339731
     2  H    0.173346
     3  H    0.174516
     4  C   -0.345199
     5  H    0.168481
     6  H    0.168587
 Sum of Mulliken charges =  -0.00000

 Dipole moment (field-independent basis, Debye):
    X=             -0.0003    Y=              0.0101    Z=             -0.0593  Tot=              0.0602
 Quadrupole moment (field-independent basis, Debye-Ang):
   XX=            -12.2017   YY=            -12.2157   ZZ=            -15.6687
   XY=              0.0143   XZ=              0.0000   YZ=             -0.0038

 Normal termination of Gaussian 16 at Wed Jan 11 18:48:49 2023.
