 Gaussian 16, Revision C.01,
 Gaussian 16:  ES64L-G16RevC.01  3-Jul-2019

 -------------------------------------------------------
 # WB97XD/6-311G SCF=XQC FORCE nosym pop=full guess=read
 -------------------------------------------------------

 ------------
 MD Step 1000
 ------------
 Symbolic Z-matrix:
 Charge =  0 Multiplicity = 1

                          Input orientation:
 ---------------------------------------------------------------------
 Center     Atomic      Atomic             Coordinates (Angstroms)
 Number     Number       Type             X           Y           Z
 ---------------------------------------------------------------------
      1          6           0       -0.336581   -0.582338    0.010503
      2          1           0        0.217925   -1.522791   -0.038717
      3          1           0       -1.416115   -0.584484   -0.040911
      4          6           0        0.332889    0.577001    0.007037
      5          1           0       -0.159218    1.566633   -0.043996
      6          1           0        1.445229    0.648090   -0.041525
 ---------------------------------------------------------------------

 SCF Done:  E(RwB97XD) =  -78.5551844170     A.U. after    8 cycles

 Alpha  occ. eigenvalues --  -10.29084 -10.28725  -0.86395  -0.67254  -0.55975
 Alpha  occ. eigenvalues --   -0.50936  -0.43656  -0.35677
 Alpha virt. eigenvalues --    0.07923   0.14098   0.16487   0.17047   0.24087
 Alpha virt. eigenvalues --    0.37363   0.39339   0.39936   0.46422   0.48966
 Alpha virt. eigenvalues --    0.49391   0.59104   0.66551   0.69192   0.77220

 Mulliken charges:
               1
     1  C   -0.339225
     2  H    0.173727
     3  H    0.175444
     4  C   -0.346734
     5  H    0.168727
     6  H    0.168061
 Sum of Mulliken charges =   0.00000

 Dipole moment (field-independent basis, Debye):
    X=              0.0007    Y=              0.0190    Z=             -0.1661  Tot=              0.1672
 Quadrupole moment (field-independent basis, Debye-Ang):
   XX=            -12.2101   YY=            -12.2259   ZZ=            -15.6606
   XY=              0.0121   XZ=              0.0025   YZ=             -0.0031

 Normal termination of Gaussian 16 at Wed Jan 11 18:33:45 2023.
