 Gaussian 16, Revision C.01,
 Gaussian 16:  ES64L-G16RevC.01  3-Jul-2019

 -------------------------------------------------------
 # WB97XD/6-311G SCF=XQC FORCE nosym pop=full guess=read
 -------------------------------------------------------

 -----------
 MD Step 999
 -----------
 Symbolic Z-matrix:
 Charge =  0 Multiplicity = 1

                          Input orientation:
 ---------------------------------------------------------------------
 Center     Atomic      Atomic             Coordinates (Angstroms)
 Number     Number       Type             X           Y           Z
 ---------------------------------------------------------------------
      1          6           0       -0.336709   -0.582224    0.006295
      2          1           0        0.226659   -1.522955   -0.017794
      3          1           0       -1.418698   -0.577761   -0.018488
      4          6           0        0.331784    0.575320    0.004024
      5          1           0       -0.150061    1.569909   -0.021627
      6          1           0        1.444800    0.657093   -0.021021
 ---------------------------------------------------------------------

 SCF Done:  E(RwB97XD) =  -78.5552190957     A.U. after    8 cycles

 Alpha  occ. eigenvalues --  -10.29041 -10.28770  -0.86421  -0.67223  -0.55969
 Alpha  occ. eigenvalues --   -0.50962  -0.43573  -0.35716
 Alpha virt. eigenvalues --    0.08016   0.14093   0.16462   0.16999   0.24075
 Alpha virt. eigenvalues --    0.37154   0.39308   0.40186   0.46320   0.48912
 Alpha virt. eigenvalues --    0.49360   0.59117   0.66541   0.69153   0.77237

 Mulliken charges:
               1
     1  C   -0.338912
     2  H    0.174177
     3  H    0.176049
     4  C   -0.347720
     5  H    0.168667
     6  H    0.167739
 Sum of Mulliken charges =   0.00000

 Dipole moment (field-independent basis, Debye):
    X=              0.0038    Y=              0.0282    Z=             -0.0826  Tot=              0.0873
 Quadrupole moment (field-independent basis, Debye-Ang):
   XX=            -12.2086   YY=            -12.2156   ZZ=            -15.6678
   XY=              0.0195   XZ=             -0.0011   YZ=             -0.0036

 Normal termination of Gaussian 16 at Wed Jan 11 18:37:43 2023.
