 Gaussian 16, Revision C.01,
 Gaussian 16:  ES64L-G16RevC.01  3-Jul-2019

 -------------------------------------------------------
 # WB97XD/6-311G SCF=XQC FORCE nosym pop=full guess=read
 -------------------------------------------------------

 ------------
 MD Step 1000
 ------------
 Symbolic Z-matrix:
 Charge =  0 Multiplicity = 1

                          Input orientation:
 ---------------------------------------------------------------------
 Center     Atomic      Atomic             Coordinates (Angstroms)
 Number     Number       Type             X           Y           Z
 ---------------------------------------------------------------------
      1          6           0       -0.335976   -0.580842    0.005858
      2          1           0        0.215631   -1.535119   -0.019849
      3          1           0       -1.424852   -0.595373   -0.020911
      4          6           0        0.333886    0.578863    0.004961
      5          1           0       -0.164682    1.560051   -0.023015
      6          1           0        1.442088    0.637297   -0.021878
 ---------------------------------------------------------------------

 SCF Done:  E(RwB97XD) =  -78.5560325001     A.U. after    8 cycles

 Alpha  occ. eigenvalues --  -10.29010 -10.28881  -0.86340  -0.67206  -0.55897
 Alpha  occ. eigenvalues --   -0.50904  -0.43690  -0.35665
 Alpha virt. eigenvalues --    0.07962   0.14083   0.16462   0.17004   0.24075
 Alpha virt. eigenvalues --    0.37480   0.39328   0.39702   0.46453   0.48729
 Alpha virt. eigenvalues --    0.49390   0.59090   0.66560   0.69028   0.77313

 Mulliken charges:
               1
     1  C   -0.340075
     2  H    0.172059
     3  H    0.174111
     4  C   -0.344998
     5  H    0.169826
     6  H    0.169076
 Sum of Mulliken charges =   0.00000

 Dipole moment (field-independent basis, Debye):
    X=              0.0005    Y=              0.0188    Z=             -0.0889  Tot=              0.0909
 Quadrupole moment (field-independent basis, Debye-Ang):
   XX=            -12.1987   YY=            -12.2210   ZZ=            -15.6783
   XY=              0.0099   XZ=             -0.0002   YZ=             -0.0037

 Normal termination of Gaussian 16 at Wed Jan 11 19:42:28 2023.
