 Gaussian 16, Revision C.01,
 Gaussian 16:  ES64L-G16RevC.01  3-Jul-2019

 -------------------------------------------------------
 # WB97XD/6-311G SCF=XQC FORCE nosym pop=full guess=read
 -------------------------------------------------------

 ------------
 MD Step 1000
 ------------
 Symbolic Z-matrix:
 Charge =  0 Multiplicity = 1

                          Input orientation:
 ---------------------------------------------------------------------
 Center     Atomic      Atomic             Coordinates (Angstroms)
 Number     Number       Type             X           Y           Z
 ---------------------------------------------------------------------
      1          6           0       -0.337393   -0.583213    0.004257
      2          1           0        0.231715   -1.524789   -0.010077
      3          1           0       -1.425662   -0.578112   -0.011049
      4          6           0        0.332458    0.576706    0.002569
      5          1           0       -0.147864    1.563943   -0.012744
      6          1           0        1.436295    0.652174   -0.011786
 ---------------------------------------------------------------------

 SCF Done:  E(RwB97XD) =  -78.5556362726     A.U. after    8 cycles

 Alpha  occ. eigenvalues --  -10.28933 -10.28846  -0.86369  -0.67282  -0.56000
 Alpha  occ. eigenvalues --   -0.50873  -0.43704  -0.35658
 Alpha virt. eigenvalues --    0.07976   0.14101   0.16517   0.17039   0.24084
 Alpha virt. eigenvalues --    0.37009   0.39459   0.40124   0.46501   0.48891
 Alpha virt. eigenvalues --    0.49398   0.59100   0.66614   0.69221   0.77395

 Mulliken charges:
               1
     1  C   -0.339301
     2  H    0.173634
     3  H    0.175486
     4  C   -0.347997
     5  H    0.169543
     6  H    0.168635
 Sum of Mulliken charges =  -0.00000

 Dipole moment (field-independent basis, Debye):
    X=              0.0114    Y=              0.0350    Z=             -0.0494  Tot=              0.0616
 Quadrupole moment (field-independent basis, Debye-Ang):
   XX=            -12.1941   YY=            -12.2203   ZZ=            -15.6712
   XY=              0.0066   XZ=              0.0006   YZ=             -0.0020

 Normal termination of Gaussian 16 at Wed Jan 11 19:42:12 2023.
