 Gaussian 16, Revision C.01,
 Gaussian 16:  ES64L-G16RevC.01  3-Jul-2019

 -------------------------------------------------------
 # WB97XD/6-311G SCF=XQC FORCE nosym pop=full guess=read
 -------------------------------------------------------

 -----------
 MD Step 999
 -----------
 Symbolic Z-matrix:
 Charge =  0 Multiplicity = 1

                          Input orientation:
 ---------------------------------------------------------------------
 Center     Atomic      Atomic             Coordinates (Angstroms)
 Number     Number       Type             X           Y           Z
 ---------------------------------------------------------------------
      1          6           0       -0.335760   -0.579955    0.005537
      2          1           0        0.217575   -1.525764   -0.016870
      3          1           0       -1.421561   -0.603415   -0.019881
      4          6           0        0.332620    0.577772    0.004778
      5          1           0       -0.157614    1.567312   -0.022233
      6          1           0        1.443916    0.632763   -0.019045
 ---------------------------------------------------------------------

 SCF Done:  E(RwB97XD) =  -78.5560452893     A.U. after    8 cycles

 Alpha  occ. eigenvalues --  -10.29032 -10.28767  -0.86398  -0.67229  -0.55908
 Alpha  occ. eigenvalues --   -0.50996  -0.43631  -0.35708
 Alpha virt. eigenvalues --    0.08015   0.14107   0.16467   0.17013   0.24092
 Alpha virt. eigenvalues --    0.37599   0.39274   0.39791   0.46384   0.48823
 Alpha virt. eigenvalues --    0.49365   0.59119   0.66547   0.69108   0.77275

 Mulliken charges:
               1
     1  C   -0.339782
     2  H    0.172216
     3  H    0.174745
     4  C   -0.344975
     5  H    0.169701
     6  H    0.168095
 Sum of Mulliken charges =  -0.00000

 Dipole moment (field-independent basis, Debye):
    X=              0.0027    Y=              0.0115    Z=             -0.0817  Tot=              0.0825
 Quadrupole moment (field-independent basis, Debye-Ang):
   XX=            -12.2045   YY=            -12.2110   ZZ=            -15.6659
   XY=              0.0245   XZ=              0.0024   YZ=             -0.0058

 Normal termination of Gaussian 16 at Wed Jan 11 19:42:57 2023.
