 Gaussian 16, Revision C.01,
 Gaussian 16:  ES64L-G16RevC.01  3-Jul-2019

 -------------------------------------------------------
 # WB97XD/6-311G SCF=XQC FORCE nosym pop=full guess=read
 -------------------------------------------------------

 ------------
 MD Step 1000
 ------------
 Symbolic Z-matrix:
 Charge =  0 Multiplicity = 1

                          Input orientation:
 ---------------------------------------------------------------------
 Center     Atomic      Atomic             Coordinates (Angstroms)
 Number     Number       Type             X           Y           Z
 ---------------------------------------------------------------------
      1          6           0       -0.335169   -0.580264    0.005951
      2          1           0        0.205760   -1.533197   -0.020813
      3          1           0       -1.421997   -0.600599   -0.021954
      4          6           0        0.334209    0.579017    0.004835
      5          1           0       -0.172016    1.558351   -0.022628
      6          1           0        1.441508    0.632108   -0.021313
 ---------------------------------------------------------------------

 SCF Done:  E(RwB97XD) =  -78.5563456903     A.U. after    8 cycles

 Alpha  occ. eigenvalues --  -10.29005 -10.28777  -0.86366  -0.67252  -0.55931
 Alpha  occ. eigenvalues --   -0.50941  -0.43726  -0.35670
 Alpha virt. eigenvalues --    0.07977   0.14116   0.16497   0.17047   0.24095
 Alpha virt. eigenvalues --    0.37669   0.39364   0.39593   0.46488   0.48817
 Alpha virt. eigenvalues --    0.49392   0.59108   0.66594   0.69160   0.77322

 Mulliken charges:
               1
     1  C   -0.340486
     2  H    0.172095
     3  H    0.173661
     4  C   -0.344214
     5  H    0.169633
     6  H    0.169312
 Sum of Mulliken charges =  -0.00000

 Dipole moment (field-independent basis, Debye):
    X=             -0.0015    Y=              0.0090    Z=             -0.0898  Tot=              0.0903
 Quadrupole moment (field-independent basis, Debye-Ang):
   XX=            -12.1984   YY=            -12.2144   ZZ=            -15.6667
   XY=              0.0129   XZ=              0.0019   YZ=             -0.0007

 Normal termination of Gaussian 16 at Wed Jan 11 16:33:19 2023.
