 Gaussian 16, Revision C.01,
 Gaussian 16:  ES64L-G16RevC.01  3-Jul-2019

 ----------------------------------------------
 # WB97XD/6-311+G* SCF=XQC FORCE nosym pop=full
 ----------------------------------------------

 -----------
 MD Step 570
 -----------
 Symbolic Z-matrix:
 Charge =  0 Multiplicity = 1

                          Input orientation:
 ---------------------------------------------------------------------
 Center     Atomic      Atomic             Coordinates (Angstroms)
 Number     Number       Type             X           Y           Z
 ---------------------------------------------------------------------
      1          6           0       -0.141358   -0.652219    0.103435
      2          1           0        0.504045   -1.599028   -0.522199
      3          1           0       -1.098457   -1.285714    0.294853
      4          6           0        0.083338    0.866125   -0.125722
      5          1           0        0.976846    0.699121   -0.598445
      6          1           0        0.381206   -0.311413    1.153370
 ---------------------------------------------------------------------

 SCF Done:  E(RwB97XD) =  -78.4033187532     A.U. after   14 cycles

 Alpha  occ. eigenvalues --  -10.34958 -10.34135  -0.87436  -0.68473  -0.53444
 Alpha  occ. eigenvalues --   -0.47761  -0.43428  -0.32958
 Alpha virt. eigenvalues --   -0.01126   0.06202   0.08490   0.10490   0.10910
 Alpha virt. eigenvalues --    0.13263   0.14649   0.15321   0.16891   0.19480
 Alpha virt. eigenvalues --    0.21223   0.23216   0.27292   0.30929   0.47596

 Mulliken charges:
               1
     1  C   -0.622002
     2  H    0.181095
     3  H    0.276765
     4  C   -0.341656
     5  H    0.245924
     6  H    0.259875
 Sum of Mulliken charges =  -0.00000

 Dipole moment (field-independent basis, Debye):
    X=              0.9311    Y=             -2.1597    Z=             -0.1314  Tot=              2.3556
 Quadrupole moment (field-independent basis, Debye-Ang):
   XX=            -14.2903   YY=            -17.4205   ZZ=            -13.4520
   XY=              1.7937   XZ=              0.1159   YZ=             -0.7375

 1\1\GINC-BHX0029\Force\RwB97XD\6-311+G(d)\C2H4\BWEIGHT\03-Jan-2023\0\\
 # WB97XD/6-311+G* SCF=XQC FORCE nosym pop=full\\MD Step 570\\0,1\C,-0.
 14135835,-0.65221934,0.10343543\H,0.50404545,-1.59902827,-0.52219943\H
 ,-1.09845734,-1.28571447,0.29485283\C,0.08333815,0.86612546,-0.1257223
 3\H,0.97684639,0.69912124,-0.59844541\H,0.38120638,-0.31141348,1.15337
 046\\Version=ES64L-G16RevC.01\HF=-78.4033188\RMSD=1.711e-09\RMSF=3.659
 e-02\Dipole=0.3663395,-0.8497095,-0.0516994\Quadrupole=0.5679513,-1.75
 92064,1.1912551,1.3335624,0.0861673,-0.5482878\PG=C01 [X(C2H4)]\\@

 Normal termination of Gaussian 16 at Tue Jan  3 13:50:30 2023.
