 Gaussian 16, Revision C.01,
 Gaussian 16:  ES64L-G16RevC.01  3-Jul-2019

 -----------------------------------------
 # BLYP/3-21G SCF=XQC FORCE nosym pop=full
 -----------------------------------------

 -----------
 MD Step 157
 -----------
 Symbolic Z-matrix:
 Charge =  0 Multiplicity = 1

                          Input orientation:
 ---------------------------------------------------------------------
 Center     Atomic      Atomic             Coordinates (Angstroms)
 Number     Number       Type             X           Y           Z
 ---------------------------------------------------------------------
      1          6           0       -0.276896   -0.625494    0.143753
      2          1           0       -0.258840   -1.557824   -0.588535
      3          1           0       -1.252242   -0.934321    0.701954
      4          6           0        0.387453    0.757266   -0.221412
      5          1           0       -0.078199    1.656816   -0.487065
      6          1           0        0.319755   -0.678775    1.362125
 ---------------------------------------------------------------------

 SCF Done:  E(RB-LYP) =  -77.8992730419     A.U. after   22 cycles

 Alpha  occ. eigenvalues --   -9.91099  -9.90439  -0.65297  -0.53399  -0.38986
 Alpha  occ. eigenvalues --   -0.36317  -0.27629  -0.13371
 Alpha virt. eigenvalues --   -0.13138   0.02728   0.08355   0.12462   0.14099
 Alpha virt. eigenvalues --    0.24209   0.64266   0.68622   0.69611   0.74135
 Alpha virt. eigenvalues --    0.80742   0.86992   0.88734   0.93544   0.94329

 Mulliken charges:
               1
     1  C   -0.537396
     2  H    0.214178
     3  H    0.144373
     4  C   -0.148754
     5  H    0.179686
     6  H    0.147913
 Sum of Mulliken charges =  -0.00000

 Dipole moment (field-independent basis, Debye):
    X=             -1.6740    Y=             -0.3279    Z=              0.2421  Tot=              1.7229
 Quadrupole moment (field-independent basis, Debye-Ang):
   XX=            -17.9290   YY=            -12.0449   ZZ=            -12.5076
   XY=             -0.6015   XZ=              0.7609   YZ=              0.3264

 Normal termination of Gaussian 16 at Sun Jan  1 19:26:41 2023.
