 Gaussian 16, Revision C.01,
 Gaussian 16:  ES64L-G16RevC.01  3-Jul-2019

 ----------------------------------------------
 # WB97XD/6-311+G* SCF=XQC FORCE nosym pop=full
 ----------------------------------------------

 -----------
 MD Step 999
 -----------
 Symbolic Z-matrix:
 Charge =  0 Multiplicity = 1

                          Input orientation:
 ---------------------------------------------------------------------
 Center     Atomic      Atomic             Coordinates (Angstroms)
 Number     Number       Type             X           Y           Z
 ---------------------------------------------------------------------
      1          6           0        0.977798   -0.177261    0.111547
      2          1           0       -8.820252   -6.355653   -1.337964
      3          1           0       -7.947573   -6.154169   -1.753741
      4          6           0        0.332326    1.091861    0.095872
      5          1           0        0.024535    1.810001   -0.765943
      6          1           0        1.192753   -0.155795    1.451344
 ---------------------------------------------------------------------

 SCF Done:  E(RwB97XD) =  -78.3270090033     A.U. after   15 cycles

 Alpha  occ. eigenvalues --  -10.37030 -10.36317  -0.84011  -0.64042  -0.47443
 Alpha  occ. eigenvalues --   -0.46417  -0.40925  -0.36185
 Alpha virt. eigenvalues --   -0.06176   0.04227   0.07658   0.08279   0.08714
 Alpha virt. eigenvalues --    0.10883   0.12332   0.13411   0.15371   0.17208
 Alpha virt. eigenvalues --    0.18565   0.21450   0.23191   0.29919   0.37532

 Mulliken charges:
               1
     1  C   -0.227439
     2  H   -0.000607
     3  H    0.000607
     4  C   -0.290567
     5  H    0.289582
     6  H    0.228423
 Sum of Mulliken charges =  -0.00000

 Dipole moment (field-independent basis, Debye):
    X=             -0.2384    Y=              1.4150    Z=              0.2754  Tot=              1.4611
 Quadrupole moment (field-independent basis, Debye-Ang):
   XX=            -16.7538   YY=            -13.7622   ZZ=            -13.3919
   XY=             -0.3530   XZ=              1.2545   YZ=             -1.5525

 1\1\GINC-BHX0029\Force\RwB97XD\6-311+G(d)\C2H4\BWEIGHT\05-Jan-2023\0\\
 # WB97XD/6-311+G* SCF=XQC FORCE nosym pop=full\\MD Step 999\\0,1\C,0.9
 7779819,-0.17726116,0.11154703\H,-8.82025202,-6.35565316,-1.33796445\H
 ,-7.94757265,-6.15416947,-1.75374135\C,0.33232557,1.09186052,0.0958719
 7\H,0.02453481,1.81000102,-0.7659426\H,1.19275317,-0.15579542,1.451344
 37\\Version=ES64L-G16RevC.01\HF=-78.327009\RMSD=2.092e-09\RMSF=7.195e-
 02\Dipole=-0.0938048,0.5566853,0.1083489\Quadrupole=-1.574573,0.649629
 3,0.9249437,-0.2624125,0.9327182,-1.1542627\PG=C01 [X(C2H4)]\\@

 Normal termination of Gaussian 16 at Thu Jan  5 10:06:59 2023.
