 Gaussian 16, Revision C.01,
 Gaussian 16:  ES64L-G16RevC.01  3-Jul-2019

 -------------------------------------------------------
 # WB97XD/6-311G SCF=XQC FORCE nosym pop=full guess=read
 -------------------------------------------------------

 -----------
 MD Step 999
 -----------
 Symbolic Z-matrix:
 Charge =  0 Multiplicity = 1

                          Input orientation:
 ---------------------------------------------------------------------
 Center     Atomic      Atomic             Coordinates (Angstroms)
 Number     Number       Type             X           Y           Z
 ---------------------------------------------------------------------
      1          6           0       -0.336899   -0.582332    0.003162
      2          1           0        0.225559   -1.525668   -0.006094
      3          1           0       -1.421070   -0.581488   -0.006189
      4          6           0        0.331721    0.575796    0.002117
      5          1           0       -0.152354    1.567868   -0.008032
      6          1           0        1.444296    0.651887   -0.007876
 ---------------------------------------------------------------------

 SCF Done:  E(RwB97XD) =  -78.5555339855     A.U. after    8 cycles

 Alpha  occ. eigenvalues --  -10.29027 -10.28801  -0.86399  -0.67212  -0.55958
 Alpha  occ. eigenvalues --   -0.50936  -0.43607  -0.35703
 Alpha virt. eigenvalues --    0.08020   0.14089   0.16462   0.16997   0.24071
 Alpha virt. eigenvalues --    0.37195   0.39331   0.40075   0.46347   0.48848
 Alpha virt. eigenvalues --    0.49365   0.59111   0.66552   0.69127   0.77258

 Mulliken charges:
               1
     1  C   -0.339166
     2  H    0.173762
     3  H    0.175670
     4  C   -0.347167
     5  H    0.169026
     6  H    0.167875
 Sum of Mulliken charges =   0.00000

 Dipole moment (field-independent basis, Debye):
    X=              0.0034    Y=              0.0270    Z=             -0.0321  Tot=              0.0421
 Quadrupole moment (field-independent basis, Debye-Ang):
   XX=            -12.2042   YY=            -12.2147   ZZ=            -15.6731
   XY=              0.0146   XZ=             -0.0011   YZ=             -0.0021

 Normal termination of Gaussian 16 at Wed Jan 11 16:53:12 2023.
