 Gaussian 16, Revision C.01,
 Gaussian 16:  ES64L-G16RevC.01  3-Jul-2019

 -------------------------------------------------------
 # WB97XD/6-311G SCF=XQC FORCE nosym pop=full guess=read
 -------------------------------------------------------

 ------------
 MD Step 1000
 ------------
 Symbolic Z-matrix:
 Charge =  0 Multiplicity = 1

                          Input orientation:
 ---------------------------------------------------------------------
 Center     Atomic      Atomic             Coordinates (Angstroms)
 Number     Number       Type             X           Y           Z
 ---------------------------------------------------------------------
      1          6           0       -0.336866   -0.582262    0.004247
      2          1           0        0.223987   -1.529847   -0.011815
      3          1           0       -1.424378   -0.584288   -0.012543
      4          6           0        0.332737    0.577229    0.002984
      5          1           0       -0.153395    1.560367   -0.013807
      6          1           0        1.437854    0.648610   -0.013119
 ---------------------------------------------------------------------

 SCF Done:  E(RwB97XD) =  -78.5559280744     A.U. after    8 cycles

 Alpha  occ. eigenvalues --  -10.28930 -10.28842  -0.86369  -0.67286  -0.55964
 Alpha  occ. eigenvalues --   -0.50919  -0.43703  -0.35666
 Alpha virt. eigenvalues --    0.07983   0.14112   0.16514   0.17038   0.24090
 Alpha virt. eigenvalues --    0.37232   0.39401   0.39998   0.46494   0.48860
 Alpha virt. eigenvalues --    0.49394   0.59105   0.66613   0.69196   0.77399

 Mulliken charges:
               1
     1  C   -0.339499
     2  H    0.172973
     3  H    0.174863
     4  C   -0.346838
     5  H    0.169722
     6  H    0.168779
 Sum of Mulliken charges =  -0.00000

 Dipole moment (field-independent basis, Debye):
    X=              0.0059    Y=              0.0306    Z=             -0.0546  Tot=              0.0629
 Quadrupole moment (field-independent basis, Debye-Ang):
   XX=            -12.1976   YY=            -12.2125   ZZ=            -15.6684
   XY=              0.0140   XZ=              0.0004   YZ=             -0.0015

 Normal termination of Gaussian 16 at Wed Jan 11 19:41:02 2023.
