 Gaussian 16, Revision C.01,
 Gaussian 16:  ES64L-G16RevC.01  3-Jul-2019

 -------------------------------------------------------
 # WB97XD/6-311G SCF=XQC FORCE nosym pop=full guess=read
 -------------------------------------------------------

 ------------
 MD Step 1000
 ------------
 Symbolic Z-matrix:
 Charge =  0 Multiplicity = 1

                          Input orientation:
 ---------------------------------------------------------------------
 Center     Atomic      Atomic             Coordinates (Angstroms)
 Number     Number       Type             X           Y           Z
 ---------------------------------------------------------------------
      1          6           0       -0.336021   -0.580548    0.005824
      2          1           0        0.217140   -1.526375   -0.018607
      3          1           0       -1.422356   -0.603418   -0.021672
      4          6           0        0.333288    0.578877    0.005055
      5          1           0       -0.159505    1.564323   -0.023840
      6          1           0        1.442199    0.630272   -0.020605
 ---------------------------------------------------------------------

 SCF Done:  E(RwB97XD) =  -78.5561650822     A.U. after    8 cycles

 Alpha  occ. eigenvalues --  -10.29007 -10.28787  -0.86366  -0.67258  -0.55936
 Alpha  occ. eigenvalues --   -0.50942  -0.43707  -0.35670
 Alpha virt. eigenvalues --    0.07974   0.14111   0.16499   0.17039   0.24091
 Alpha virt. eigenvalues --    0.37564   0.39347   0.39715   0.46471   0.48826
 Alpha virt. eigenvalues --    0.49391   0.59105   0.66591   0.69153   0.77313

 Mulliken charges:
               1
     1  C   -0.340101
     2  H    0.172117
     3  H    0.174549
     4  C   -0.344991
     5  H    0.169991
     6  H    0.168435
 Sum of Mulliken charges =  -0.00000

 Dipole moment (field-independent basis, Debye):
    X=              0.0031    Y=              0.0120    Z=             -0.0883  Tot=              0.0892
 Quadrupole moment (field-independent basis, Debye-Ang):
   XX=            -12.1990   YY=            -12.2142   ZZ=            -15.6676
   XY=              0.0163   XZ=              0.0027   YZ=             -0.0055

 Normal termination of Gaussian 16 at Wed Jan 11 19:43:01 2023.
