 Gaussian 16, Revision C.01,
 Gaussian 16:  ES64L-G16RevC.01  3-Jul-2019

 -------------------------------------------------------
 # WB97XD/6-311G SCF=XQC FORCE nosym pop=full guess=read
 -------------------------------------------------------

 ------------
 MD Step 1000
 ------------
 Symbolic Z-matrix:
 Charge =  0 Multiplicity = 1

                          Input orientation:
 ---------------------------------------------------------------------
 Center     Atomic      Atomic             Coordinates (Angstroms)
 Number     Number       Type             X           Y           Z
 ---------------------------------------------------------------------
      1          6           0       -0.336364   -0.582031    0.004917
      2          1           0        0.218546   -1.532701   -0.014996
      3          1           0       -1.423759   -0.583302   -0.015184
      4          6           0        0.333439    0.577570    0.003640
      5          1           0       -0.161803    1.559722   -0.016445
      6          1           0        1.440840    0.648433   -0.016355
 ---------------------------------------------------------------------

 SCF Done:  E(RwB97XD) =  -78.5559183597     A.U. after    8 cycles

 Alpha  occ. eigenvalues --  -10.28979 -10.28855  -0.86358  -0.67233  -0.55947
 Alpha  occ. eigenvalues --   -0.50894  -0.43698  -0.35665
 Alpha virt. eigenvalues --    0.07975   0.14094   0.16484   0.17021   0.24078
 Alpha virt. eigenvalues --    0.37300   0.39387   0.39865   0.46466   0.48800
 Alpha virt. eigenvalues --    0.49391   0.59097   0.66587   0.69125   0.77335

 Mulliken charges:
               1
     1  C   -0.339660
     2  H    0.173020
     3  H    0.174553
     4  C   -0.346227
     5  H    0.169309
     6  H    0.169005
 Sum of Mulliken charges =  -0.00000

 Dipole moment (field-independent basis, Debye):
    X=              0.0020    Y=              0.0262    Z=             -0.0665  Tot=              0.0715
 Quadrupole moment (field-independent basis, Debye-Ang):
   XX=            -12.1973   YY=            -12.2192   ZZ=            -15.6747
   XY=              0.0075   XZ=             -0.0004   YZ=             -0.0011

 Normal termination of Gaussian 16 at Wed Jan 11 16:35:38 2023.
