 Gaussian 16, Revision C.01,
 Gaussian 16:  ES64L-G16RevC.01  3-Jul-2019

 -------------------------------------------------------
 # WB97XD/6-311G SCF=XQC FORCE nosym pop=full guess=read
 -------------------------------------------------------

 ------------
 MD Step 1000
 ------------
 Symbolic Z-matrix:
 Charge =  0 Multiplicity = 1

                          Input orientation:
 ---------------------------------------------------------------------
 Center     Atomic      Atomic             Coordinates (Angstroms)
 Number     Number       Type             X           Y           Z
 ---------------------------------------------------------------------
      1          6           0       -0.336231   -0.581572    0.007130
      2          1           0        0.213553   -1.530441   -0.026354
      3          1           0       -1.421237   -0.592365   -0.027748
      4          6           0        0.333425    0.578010    0.005426
      5          1           0       -0.165383    1.562320   -0.029900
      6          1           0        1.443647    0.640089   -0.028461
 ---------------------------------------------------------------------

 SCF Done:  E(RwB97XD) =  -78.5558590106     A.U. after    8 cycles

 Alpha  occ. eigenvalues --  -10.29047 -10.28800  -0.86360  -0.67226  -0.55930
 Alpha  occ. eigenvalues --   -0.50917  -0.43689  -0.35668
 Alpha virt. eigenvalues --    0.07954   0.14094   0.16476   0.17025   0.24081
 Alpha virt. eigenvalues --    0.37482   0.39342   0.39742   0.46445   0.48816
 Alpha virt. eigenvalues --    0.49391   0.59097   0.66565   0.69106   0.77268

 Mulliken charges:
               1
     1  C   -0.339874
     2  H    0.172761
     3  H    0.174510
     4  C   -0.345395
     5  H    0.169283
     6  H    0.168715
 Sum of Mulliken charges =  -0.00000

 Dipole moment (field-independent basis, Debye):
    X=             -0.0004    Y=              0.0159    Z=             -0.1141  Tot=              0.1152
 Quadrupole moment (field-independent basis, Debye-Ang):
   XX=            -12.2018   YY=            -12.2208   ZZ=            -15.6714
   XY=              0.0104   XZ=              0.0008   YZ=             -0.0030

 Normal termination of Gaussian 16 at Wed Jan 11 16:43:01 2023.
