 Gaussian 16, Revision C.01,
 Gaussian 16:  ES64L-G16RevC.01  3-Jul-2019

 -------------------------------------------------------
 # WB97XD/6-311G SCF=XQC FORCE nosym pop=full guess=read
 -------------------------------------------------------

 ------------
 MD Step 1000
 ------------
 Symbolic Z-matrix:
 Charge =  0 Multiplicity = 1

                          Input orientation:
 ---------------------------------------------------------------------
 Center     Atomic      Atomic             Coordinates (Angstroms)
 Number     Number       Type             X           Y           Z
 ---------------------------------------------------------------------
      1          6           0       -0.337381   -0.583769    0.008366
      2          1           0        0.225730   -1.523305   -0.029706
      3          1           0       -1.420221   -0.575563   -0.030355
      4          6           0        0.332690    0.576745    0.005556
      5          1           0       -0.151638    1.565585   -0.033294
      6          1           0        1.442208    0.657147   -0.032365
 ---------------------------------------------------------------------

 SCF Done:  E(RwB97XD) =  -78.5551760531     A.U. after    8 cycles

 Alpha  occ. eigenvalues --  -10.29017 -10.28812  -0.86364  -0.67281  -0.55990
 Alpha  occ. eigenvalues --   -0.50892  -0.43675  -0.35652
 Alpha virt. eigenvalues --    0.07923   0.14099   0.16508   0.17034   0.24076
 Alpha virt. eigenvalues --    0.37076   0.39383   0.40131   0.46457   0.48930
 Alpha virt. eigenvalues --    0.49405   0.59089   0.66597   0.69192   0.77277

 Mulliken charges:
               1
     1  C   -0.339159
     2  H    0.174280
     3  H    0.175796
     4  C   -0.348130
     5  H    0.168996
     6  H    0.168217
 Sum of Mulliken charges =  -0.00000

 Dipole moment (field-independent basis, Debye):
    X=              0.0052    Y=              0.0310    Z=             -0.1277  Tot=              0.1315
 Quadrupole moment (field-independent basis, Debye-Ang):
   XX=            -12.2054   YY=            -12.2205   ZZ=            -15.6690
   XY=              0.0108   XZ=             -0.0002   YZ=             -0.0025

 Normal termination of Gaussian 16 at Wed Jan 11 19:57:18 2023.
