 Gaussian 16, Revision C.01,
 Gaussian 16:  ES64L-G16RevC.01  3-Jul-2019

 -------------------------------------------------------
 # WB97XD/6-311G SCF=XQC FORCE nosym pop=full guess=read
 -------------------------------------------------------

 -----------
 MD Step 999
 -----------
 Symbolic Z-matrix:
 Charge =  0 Multiplicity = 1

                          Input orientation:
 ---------------------------------------------------------------------
 Center     Atomic      Atomic             Coordinates (Angstroms)
 Number     Number       Type             X           Y           Z
 ---------------------------------------------------------------------
      1          6           0       -0.336250   -0.581545    0.006634
      2          1           0        0.214975   -1.525947   -0.024186
      3          1           0       -1.418197   -0.590065   -0.025239
      4          6           0        0.332182    0.576246    0.004832
      5          1           0       -0.160000    1.567382   -0.027197
      6          1           0        1.445828    0.645907   -0.025866
 ---------------------------------------------------------------------

 SCF Done:  E(RwB97XD) =  -78.5556299059     A.U. after    8 cycles

 Alpha  occ. eigenvalues --  -10.29079 -10.28725  -0.86408  -0.67230  -0.55932
 Alpha  occ. eigenvalues --   -0.50993  -0.43609  -0.35709
 Alpha virt. eigenvalues --    0.08002   0.14104   0.16465   0.17013   0.24085
 Alpha virt. eigenvalues --    0.37480   0.39272   0.39919   0.46345   0.48884
 Alpha virt. eigenvalues --    0.49365   0.59117   0.66537   0.69143   0.77222

 Mulliken charges:
               1
     1  C   -0.339380
     2  H    0.173389
     3  H    0.175154
     4  C   -0.345962
     5  H    0.168800
     6  H    0.167998
 Sum of Mulliken charges =  -0.00000

 Dipole moment (field-independent basis, Debye):
    X=             -0.0004    Y=              0.0159    Z=             -0.1039  Tot=              0.1051
 Quadrupole moment (field-independent basis, Debye-Ang):
   XX=            -12.2097   YY=            -12.2114   ZZ=            -15.6645
   XY=              0.0232   XZ=              0.0009   YZ=             -0.0020

 Normal termination of Gaussian 16 at Wed Jan 11 16:33:25 2023.
