 Gaussian 16, Revision C.01,
 Gaussian 16:  ES64L-G16RevC.01  3-Jul-2019

 -------------------------------------------------------
 # WB97XD/6-311G SCF=XQC FORCE nosym pop=full guess=read
 -------------------------------------------------------

 -----------
 MD Step 999
 -----------
 Symbolic Z-matrix:
 Charge =  0 Multiplicity = 1

                          Input orientation:
 ---------------------------------------------------------------------
 Center     Atomic      Atomic             Coordinates (Angstroms)
 Number     Number       Type             X           Y           Z
 ---------------------------------------------------------------------
      1          6           0       -0.335720   -0.580852    0.005868
      2          1           0        0.223679   -1.530114   -0.015577
      3          1           0       -1.424313   -0.584657   -0.016772
      4          6           0        0.332848    0.576824    0.004145
      5          1           0       -0.156029    1.565455   -0.018871
      6          1           0        1.441179    0.647606   -0.017824
 ---------------------------------------------------------------------

 SCF Done:  E(RwB97XD) =  -78.5557250702     A.U. after    8 cycles

 Alpha  occ. eigenvalues --  -10.28990 -10.28860  -0.86397  -0.67185  -0.55918
 Alpha  occ. eigenvalues --   -0.50939  -0.43608  -0.35710
 Alpha virt. eigenvalues --    0.08019   0.14081   0.16440   0.16990   0.24079
 Alpha virt. eigenvalues --    0.37291   0.39320   0.39962   0.46373   0.48796
 Alpha virt. eigenvalues --    0.49360   0.59114   0.66529   0.69053   0.77296

 Mulliken charges:
               1
     1  C   -0.339255
     2  H    0.172935
     3  H    0.174797
     4  C   -0.346285
     5  H    0.169231
     6  H    0.168577
 Sum of Mulliken charges =   0.00000

 Dipole moment (field-independent basis, Debye):
    X=              0.0054    Y=              0.0261    Z=             -0.0738  Tot=              0.0785
 Quadrupole moment (field-independent basis, Debye-Ang):
   XX=            -12.2038   YY=            -12.2204   ZZ=            -15.6735
   XY=              0.0117   XZ=              0.0003   YZ=             -0.0030

 Normal termination of Gaussian 16 at Wed Jan 11 18:46:02 2023.
