 Gaussian 16, Revision C.01,
 Gaussian 16:  ES64L-G16RevC.01  3-Jul-2019

 -------------------------------------------------------
 # WB97XD/6-311G SCF=XQC FORCE nosym pop=full guess=read
 -------------------------------------------------------

 ------------
 MD Step 1000
 ------------
 Symbolic Z-matrix:
 Charge =  0 Multiplicity = 1

                          Input orientation:
 ---------------------------------------------------------------------
 Center     Atomic      Atomic             Coordinates (Angstroms)
 Number     Number       Type             X           Y           Z
 ---------------------------------------------------------------------
      1          6           0       -0.335585   -0.580234    0.006734
      2          1           0        0.211998   -1.531368   -0.024387
      3          1           0       -1.421127   -0.600195   -0.026148
      4          6           0        0.333325    0.578414    0.005811
      5          1           0       -0.165857    1.563318   -0.028629
      6          1           0        1.445522    0.633555   -0.026700
 ---------------------------------------------------------------------

 SCF Done:  E(RwB97XD) =  -78.5559483151     A.U. after    8 cycles

 Alpha  occ. eigenvalues --  -10.29065 -10.28794  -0.86373  -0.67202  -0.55896
 Alpha  occ. eigenvalues --   -0.50952  -0.43652  -0.35691
 Alpha virt. eigenvalues --    0.07980   0.14089   0.16452   0.17007   0.24083
 Alpha virt. eigenvalues --    0.37613   0.39284   0.39681   0.46402   0.48780
 Alpha virt. eigenvalues --    0.49374   0.59105   0.66533   0.69052   0.77250

 Mulliken charges:
               1
     1  C   -0.340053
     2  H    0.172205
     3  H    0.174313
     4  C   -0.344569
     5  H    0.169595
     6  H    0.168509
 Sum of Mulliken charges =  -0.00000

 Dipole moment (field-independent basis, Debye):
    X=             -0.0022    Y=              0.0110    Z=             -0.1084  Tot=              0.1090
 Quadrupole moment (field-independent basis, Debye-Ang):
   XX=            -12.2052   YY=            -12.2176   ZZ=            -15.6715
   XY=              0.0148   XZ=              0.0005   YZ=             -0.0047

 Normal termination of Gaussian 16 at Wed Jan 11 16:33:09 2023.
