 Gaussian 16, Revision C.01,
 Gaussian 16:  ES64L-G16RevC.01  3-Jul-2019

 -------------------------------------------------------
 # WB97XD/6-311G SCF=XQC FORCE nosym pop=full guess=read
 -------------------------------------------------------

 ------------
 MD Step 1000
 ------------
 Symbolic Z-matrix:
 Charge =  0 Multiplicity = 1

                          Input orientation:
 ---------------------------------------------------------------------
 Center     Atomic      Atomic             Coordinates (Angstroms)
 Number     Number       Type             X           Y           Z
 ---------------------------------------------------------------------
      1          6           0       -0.336429   -0.581952    0.006144
      2          1           0        0.213014   -1.526709   -0.022145
      3          1           0       -1.417071   -0.590696   -0.022704
      4          6           0        0.332805    0.577309    0.004852
      5          1           0       -0.164440    1.566454   -0.025112
      6          1           0        1.448462    0.643048   -0.024288
 ---------------------------------------------------------------------

 SCF Done:  E(RwB97XD) =  -78.5556476638     A.U. after    8 cycles

 Alpha  occ. eigenvalues --  -10.29123 -10.28721  -0.86374  -0.67221  -0.55945
 Alpha  occ. eigenvalues --   -0.50934  -0.43660  -0.35679
 Alpha virt. eigenvalues --    0.07972   0.14092   0.16471   0.17019   0.24073
 Alpha virt. eigenvalues --    0.37480   0.39314   0.39792   0.46373   0.48848
 Alpha virt. eigenvalues --    0.49383   0.59099   0.66545   0.69146   0.77186

 Mulliken charges:
               1
     1  C   -0.339737
     2  H    0.173427
     3  H    0.175174
     4  C   -0.345723
     5  H    0.168848
     6  H    0.168010
 Sum of Mulliken charges =  -0.00000

 Dipole moment (field-independent basis, Debye):
    X=             -0.0037    Y=              0.0129    Z=             -0.0964  Tot=              0.0973
 Quadrupole moment (field-independent basis, Debye-Ang):
   XX=            -12.2047   YY=            -12.2155   ZZ=            -15.6715
   XY=              0.0142   XZ=             -0.0007   YZ=             -0.0030

 Normal termination of Gaussian 16 at Wed Jan 11 18:39:51 2023.
