 Gaussian 16, Revision C.01,
 Gaussian 16:  ES64L-G16RevC.01  3-Jul-2019

 -------------------------------------------------------
 # WB97XD/6-311G SCF=XQC FORCE nosym pop=full guess=read
 -------------------------------------------------------

 ------------
 MD Step 1000
 ------------
 Symbolic Z-matrix:
 Charge =  0 Multiplicity = 1

                          Input orientation:
 ---------------------------------------------------------------------
 Center     Atomic      Atomic             Coordinates (Angstroms)
 Number     Number       Type             X           Y           Z
 ---------------------------------------------------------------------
      1          6           0       -0.335828   -0.581426    0.008382
      2          1           0        0.213751   -1.529259   -0.031176
      3          1           0       -1.419942   -0.590493   -0.032332
      4          6           0        0.333412    0.578022    0.006926
      5          1           0       -0.164004    1.565695   -0.035468
      6          1           0        1.448191    0.643845   -0.034209
 ---------------------------------------------------------------------

 SCF Done:  E(RwB97XD) =  -78.5554653573     A.U. after    8 cycles

 Alpha  occ. eigenvalues --  -10.29123 -10.28798  -0.86360  -0.67192  -0.55894
 Alpha  occ. eigenvalues --   -0.50934  -0.43629  -0.35680
 Alpha virt. eigenvalues --    0.07943   0.14075   0.16440   0.16993   0.24070
 Alpha virt. eigenvalues --    0.37471   0.39257   0.39801   0.46370   0.48794
 Alpha virt. eigenvalues --    0.49380   0.59090   0.66512   0.69018   0.77189

 Mulliken charges:
               1
     1  C   -0.339667
     2  H    0.173167
     3  H    0.174775
     4  C   -0.345552
     5  H    0.169057
     6  H    0.168220
 Sum of Mulliken charges =   0.00000

 Dipole moment (field-independent basis, Debye):
    X=             -0.0026    Y=              0.0151    Z=             -0.1356  Tot=              0.1365
 Quadrupole moment (field-independent basis, Debye-Ang):
   XX=            -12.2106   YY=            -12.2207   ZZ=            -15.6751
   XY=              0.0137   XZ=             -0.0007   YZ=             -0.0049

 Normal termination of Gaussian 16 at Wed Jan 11 18:34:17 2023.
