 Gaussian 16, Revision C.01,
 Gaussian 16:  ES64L-G16RevC.01  3-Jul-2019

 -------------------------------------------------------
 # WB97XD/6-311G SCF=XQC FORCE nosym pop=full guess=read
 -------------------------------------------------------

 -----------
 MD Step 999
 -----------
 Symbolic Z-matrix:
 Charge =  0 Multiplicity = 1

                          Input orientation:
 ---------------------------------------------------------------------
 Center     Atomic      Atomic             Coordinates (Angstroms)
 Number     Number       Type             X           Y           Z
 ---------------------------------------------------------------------
      1          6           0       -0.337152   -0.582761    0.003905
      2          1           0        0.231147   -1.523095   -0.007717
      3          1           0       -1.423959   -0.578267   -0.008669
      4          6           0        0.331866    0.575624    0.002169
      5          1           0       -0.146991    1.568045   -0.010395
      6          1           0        1.438893    0.654467   -0.009486
 ---------------------------------------------------------------------

 SCF Done:  E(RwB97XD) =  -78.5554969757     A.U. after    8 cycles

 Alpha  occ. eigenvalues --  -10.28958 -10.28832  -0.86399  -0.67250  -0.55981
 Alpha  occ. eigenvalues --   -0.50923  -0.43628  -0.35693
 Alpha virt. eigenvalues --    0.08011   0.14098   0.16486   0.17013   0.24080
 Alpha virt. eigenvalues --    0.37048   0.39384   0.40193   0.46404   0.48894
 Alpha virt. eigenvalues --    0.49374   0.59112   0.66579   0.69178   0.77328

 Mulliken charges:
               1
     1  C   -0.339053
     2  H    0.173895
     3  H    0.175787
     4  C   -0.347995
     5  H    0.169114
     6  H    0.168251
 Sum of Mulliken charges =  -0.00000

 Dipole moment (field-independent basis, Debye):
    X=              0.0105    Y=              0.0325    Z=             -0.0402  Tot=              0.0528
 Quadrupole moment (field-independent basis, Debye-Ang):
   XX=            -12.1999   YY=            -12.2176   ZZ=            -15.6700
   XY=              0.0145   XZ=              0.0006   YZ=             -0.0019

 Normal termination of Gaussian 16 at Wed Jan 11 19:42:08 2023.
