 Gaussian 16, Revision C.01,
 Gaussian 16:  ES64L-G16RevC.01  3-Jul-2019

 -------------------------------------------------------
 # WB97XD/6-311G SCF=XQC FORCE nosym pop=full guess=read
 -------------------------------------------------------

 -----------
 MD Step 999
 -----------
 Symbolic Z-matrix:
 Charge =  0 Multiplicity = 1

                          Input orientation:
 ---------------------------------------------------------------------
 Center     Atomic      Atomic             Coordinates (Angstroms)
 Number     Number       Type             X           Y           Z
 ---------------------------------------------------------------------
      1          6           0       -0.335893   -0.580986    0.003880
      2          1           0        0.214525   -1.535391   -0.009676
      3          1           0       -1.421399   -0.587268   -0.009521
      4          6           0        0.332908    0.577041    0.003251
      5          1           0       -0.163904    1.562525   -0.012010
      6          1           0        1.447833    0.648646   -0.012255
 ---------------------------------------------------------------------

 SCF Done:  E(RwB97XD) =  -78.5557511923     A.U. after    8 cycles

 Alpha  occ. eigenvalues --  -10.29072 -10.28838  -0.86374  -0.67169  -0.55877
 Alpha  occ. eigenvalues --   -0.50954  -0.43596  -0.35706
 Alpha virt. eigenvalues --    0.08014   0.14075   0.16424   0.16965   0.24066
 Alpha virt. eigenvalues --    0.37440   0.39241   0.39853   0.46328   0.48722
 Alpha virt. eigenvalues --    0.49361   0.59101   0.66513   0.68988   0.77226

 Mulliken charges:
               1
     1  C   -0.339577
     2  H    0.172907
     3  H    0.174646
     4  C   -0.345511
     5  H    0.169119
     6  H    0.168415
 Sum of Mulliken charges =   0.00000

 Dipole moment (field-independent basis, Debye):
    X=             -0.0048    Y=              0.0215    Z=             -0.0477  Tot=              0.0526
 Quadrupole moment (field-independent basis, Debye-Ang):
   XX=            -12.2066   YY=            -12.2131   ZZ=            -15.6797
   XY=              0.0181   XZ=             -0.0027   YZ=             -0.0037

 Normal termination of Gaussian 16 at Wed Jan 11 18:36:48 2023.
