 Gaussian 16, Revision C.01,
 Gaussian 16:  ES64L-G16RevC.01  3-Jul-2019

 -------------------------------------------------------
 # WB97XD/6-311G SCF=XQC FORCE nosym pop=full guess=read
 -------------------------------------------------------

 -----------
 MD Step 999
 -----------
 Symbolic Z-matrix:
 Charge =  0 Multiplicity = 1

                          Input orientation:
 ---------------------------------------------------------------------
 Center     Atomic      Atomic             Coordinates (Angstroms)
 Number     Number       Type             X           Y           Z
 ---------------------------------------------------------------------
      1          6           0       -0.335135   -0.579618    0.006731
      2          1           0        0.212572   -1.534013   -0.023966
      3          1           0       -1.420729   -0.594305   -0.024501
      4          6           0        0.333155    0.577438    0.005944
      5          1           0       -0.164404    1.561540   -0.027410
      6          1           0        1.444254    0.640854   -0.027055
 ---------------------------------------------------------------------

 SCF Done:  E(RwB97XD) =  -78.5559129801     A.U. after    8 cycles

 Alpha  occ. eigenvalues --  -10.29020 -10.28804  -0.86408  -0.67199  -0.55888
 Alpha  occ. eigenvalues --   -0.50996  -0.43606  -0.35721
 Alpha virt. eigenvalues --    0.08017   0.14096   0.16441   0.17000   0.24092
 Alpha virt. eigenvalues --    0.37595   0.39258   0.39788   0.46371   0.48805
 Alpha virt. eigenvalues --    0.49355   0.59123   0.66520   0.69052   0.77280

 Mulliken charges:
               1
     1  C   -0.339688
     2  H    0.172245
     3  H    0.174255
     4  C   -0.344801
     5  H    0.169356
     6  H    0.168632
 Sum of Mulliken charges =  -0.00000

 Dipole moment (field-independent basis, Debye):
    X=             -0.0028    Y=              0.0169    Z=             -0.1061  Tot=              0.1075
 Quadrupole moment (field-independent basis, Debye-Ang):
   XX=            -12.2084   YY=            -12.2152   ZZ=            -15.6663
   XY=              0.0204   XZ=             -0.0023   YZ=             -0.0049

 Normal termination of Gaussian 16 at Wed Jan 11 19:53:59 2023.
