 Gaussian 16, Revision C.01,
 Gaussian 16:  ES64L-G16RevC.01  3-Jul-2019

 -------------------------------------------------------
 # WB97XD/6-311G SCF=XQC FORCE nosym pop=full guess=read
 -------------------------------------------------------

 -----------
 MD Step 999
 -----------
 Symbolic Z-matrix:
 Charge =  0 Multiplicity = 1

                          Input orientation:
 ---------------------------------------------------------------------
 Center     Atomic      Atomic             Coordinates (Angstroms)
 Number     Number       Type             X           Y           Z
 ---------------------------------------------------------------------
      1          6           0       -0.335851   -0.581324    0.007041
      2          1           0        0.214526   -1.533736   -0.026104
      3          1           0       -1.423219   -0.588102   -0.026640
      4          6           0        0.333372    0.577426    0.005860
      5          1           0       -0.163447    1.563812   -0.029214
      6          1           0        1.444840    0.647623   -0.028619
 ---------------------------------------------------------------------

 SCF Done:  E(RwB97XD) =  -78.5556220750     A.U. after    8 cycles

 Alpha  occ. eigenvalues --  -10.29069 -10.28860  -0.86361  -0.67184  -0.55867
 Alpha  occ. eigenvalues --   -0.50950  -0.43607  -0.35691
 Alpha virt. eigenvalues --    0.07969   0.14076   0.16428   0.16973   0.24071
 Alpha virt. eigenvalues --    0.37433   0.39235   0.39860   0.46362   0.48744
 Alpha virt. eigenvalues --    0.49372   0.59093   0.66513   0.68968   0.77236

 Mulliken charges:
               1
     1  C   -0.339565
     2  H    0.172927
     3  H    0.174465
     4  C   -0.345608
     5  H    0.169064
     6  H    0.168717
 Sum of Mulliken charges =   0.00000

 Dipole moment (field-independent basis, Debye):
    X=             -0.0004    Y=              0.0204    Z=             -0.1129  Tot=              0.1147
 Quadrupole moment (field-independent basis, Debye-Ang):
   XX=            -12.2094   YY=            -12.2177   ZZ=            -15.6776
   XY=              0.0181   XZ=             -0.0013   YZ=             -0.0038

 Normal termination of Gaussian 16 at Wed Jan 11 19:42:25 2023.
