 Gaussian 16, Revision C.01,
 Gaussian 16:  ES64L-G16RevC.01  3-Jul-2019

 -------------------------------------------------------
 # WB97XD/6-311G SCF=XQC FORCE nosym pop=full guess=read
 -------------------------------------------------------

 -----------
 MD Step 999
 -----------
 Symbolic Z-matrix:
 Charge =  0 Multiplicity = 1

                          Input orientation:
 ---------------------------------------------------------------------
 Center     Atomic      Atomic             Coordinates (Angstroms)
 Number     Number       Type             X           Y           Z
 ---------------------------------------------------------------------
      1          6           0       -0.337033   -0.583071    0.009620
      2          1           0        0.226455   -1.520610   -0.033656
      3          1           0       -1.418941   -0.578858   -0.035240
      4          6           0        0.332846    0.576558    0.007189
      5          1           0       -0.150806    1.573032   -0.040551
      6          1           0        1.445416    0.656277   -0.038600
 ---------------------------------------------------------------------

 SCF Done:  E(RwB97XD) =  -78.5547971287     A.U. after    8 cycles

 Alpha  occ. eigenvalues --  -10.29115 -10.28798  -0.86372  -0.67226  -0.55946
 Alpha  occ. eigenvalues --   -0.50924  -0.43593  -0.35676
 Alpha virt. eigenvalues --    0.07920   0.14077   0.16457   0.16995   0.24063
 Alpha virt. eigenvalues --    0.37128   0.39276   0.40152   0.46346   0.48902
 Alpha virt. eigenvalues --    0.49386   0.59086   0.66528   0.69081   0.77175

 Mulliken charges:
               1
     1  C   -0.339012
     2  H    0.174373
     3  H    0.176180
     4  C   -0.347910
     5  H    0.168488
     6  H    0.167880
 Sum of Mulliken charges =  -0.00000

 Dipole moment (field-independent basis, Debye):
    X=              0.0058    Y=              0.0249    Z=             -0.1506  Tot=              0.1528
 Quadrupole moment (field-independent basis, Debye-Ang):
   XX=            -12.2116   YY=            -12.2256   ZZ=            -15.6726
   XY=              0.0180   XZ=             -0.0016   YZ=             -0.0080

 Normal termination of Gaussian 16 at Wed Jan 11 16:48:18 2023.
