 Gaussian 16, Revision C.01,
 Gaussian 16:  ES64L-G16RevC.01  3-Jul-2019

 -------------------------------------------------------
 # WB97XD/6-311G SCF=XQC FORCE nosym pop=full guess=read
 -------------------------------------------------------

 -----------
 MD Step 999
 -----------
 Symbolic Z-matrix:
 Charge =  0 Multiplicity = 1

                          Input orientation:
 ---------------------------------------------------------------------
 Center     Atomic      Atomic             Coordinates (Angstroms)
 Number     Number       Type             X           Y           Z
 ---------------------------------------------------------------------
      1          6           0       -0.335313   -0.580659    0.005405
      2          1           0        0.209485   -1.533254   -0.017905
      3          1           0       -1.422208   -0.591418   -0.018492
      4          6           0        0.333228    0.576937    0.004151
      5          1           0       -0.169030    1.564167   -0.019702
      6          1           0        1.445292    0.643527   -0.019090
 ---------------------------------------------------------------------

 SCF Done:  E(RwB97XD) =  -78.5558980556     A.U. after    8 cycles

 Alpha  occ. eigenvalues --  -10.29081 -10.28797  -0.86388  -0.67168  -0.55882
 Alpha  occ. eigenvalues --   -0.50969  -0.43604  -0.35713
 Alpha virt. eigenvalues --    0.08016   0.14084   0.16425   0.16982   0.24076
 Alpha virt. eigenvalues --    0.37558   0.39255   0.39756   0.46334   0.48756
 Alpha virt. eigenvalues --    0.49358   0.59111   0.66509   0.69017   0.77219

 Mulliken charges:
               1
     1  C   -0.339709
     2  H    0.172861
     3  H    0.174213
     4  C   -0.344935
     5  H    0.168777
     6  H    0.168794
 Sum of Mulliken charges =  -0.00000

 Dipole moment (field-independent basis, Debye):
    X=             -0.0016    Y=              0.0136    Z=             -0.0780  Tot=              0.0792
 Quadrupole moment (field-independent basis, Debye-Ang):
   XX=            -12.2063   YY=            -12.2159   ZZ=            -15.6746
   XY=              0.0175   XZ=              0.0005   YZ=             -0.0012

 Normal termination of Gaussian 16 at Wed Jan 11 18:31:21 2023.
