 Gaussian 16, Revision C.01,
 Gaussian 16:  ES64L-G16RevC.01  3-Jul-2019

 ------------------
 # OPT B3LYP/6-31G*
 ------------------

 -------
 TitleMe
 -------
 Symbolic Z-matrix:
 Charge =  0 Multiplicity = 1

 SCF Done:  E(RB3LYP) =  -78.5872715326     A.U. after    9 cycles
 SCF Done:  E(RB3LYP) =  -78.5874502443     A.U. after    6 cycles
 SCF Done:  E(RB3LYP) =  -78.5874582462     A.U. after    6 cycles
 Optimization completed.
    -- Stationary point found.

                         Standard orientation:
 ---------------------------------------------------------------------
 Center     Atomic      Atomic             Coordinates (Angstroms)
 Number     Number       Type             X           Y           Z
 ---------------------------------------------------------------------
      1          6           0       -0.000000   -0.000000    0.665520
      2          6           0        0.000000   -0.000000   -0.665520
      3          1           0        0.000000    0.924120   -1.238974
      4          1           0       -0.000000    0.924120    1.238974
      5          1           0       -0.000000   -0.924120    1.238974
      6          1           0       -0.000000   -0.924120   -1.238974
 ---------------------------------------------------------------------

 The electronic state is 1-AG.
 Alpha  occ. eigenvalues --  -10.18428 -10.18339  -0.75473  -0.57721  -0.46478
 Alpha  occ. eigenvalues --   -0.41620  -0.35329  -0.26661
 Alpha virt. eigenvalues --    0.01878   0.12223   0.14027   0.15758   0.24402
 Alpha virt. eigenvalues --    0.33220   0.48031   0.54847   0.56889   0.63728
 Alpha virt. eigenvalues --    0.65506   0.69907   0.84747   0.87215   0.93145

 Mulliken charges:
               1
     1  C   -0.285418
     2  C   -0.285418
     3  H    0.142709
     4  H    0.142709
     5  H    0.142709
     6  H    0.142709
 Sum of Mulliken charges =  -0.00000

 Dipole moment (field-independent basis, Debye):
    X=             -0.0000    Y=              0.0000    Z=              0.0000  Tot=              0.0000
 Quadrupole moment (field-independent basis, Debye-Ang):
   XX=            -15.0323   YY=            -12.1136   ZZ=            -12.0036
   XY=              0.0000   XZ=             -0.0000   YZ=             -0.0000

 Normal termination of Gaussian 16 at Sun Jan  1 17:52:19 2023.
