 Gaussian 16, Revision C.01,
 Gaussian 16:  ES64L-G16RevC.01  3-Jul-2019

 -------------------------------------------------------
 # WB97XD/6-311G SCF=XQC FORCE nosym pop=full guess=read
 -------------------------------------------------------

 ------------
 MD Step 1000
 ------------
 Symbolic Z-matrix:
 Charge =  0 Multiplicity = 1

                          Input orientation:
 ---------------------------------------------------------------------
 Center     Atomic      Atomic             Coordinates (Angstroms)
 Number     Number       Type             X           Y           Z
 ---------------------------------------------------------------------
      1          6           0       -0.336152   -0.581608    0.007308
      2          1           0        0.217204   -1.533227   -0.027925
      3          1           0       -1.426678   -0.588960   -0.028946
      4          6           0        0.333321    0.577693    0.005333
      5          1           0       -0.161605    1.558520   -0.030746
      6          1           0        1.438033    0.643555   -0.029777
 ---------------------------------------------------------------------

 SCF Done:  E(RwB97XD) =  -78.5558950075     A.U. after    8 cycles

 Alpha  occ. eigenvalues --  -10.28963 -10.28871  -0.86365  -0.67237  -0.55919
 Alpha  occ. eigenvalues --   -0.50922  -0.43684  -0.35673
 Alpha virt. eigenvalues --    0.07959   0.14096   0.16477   0.17024   0.24090
 Alpha virt. eigenvalues --    0.37392   0.39351   0.39836   0.46480   0.48814
 Alpha virt. eigenvalues --    0.49388   0.59102   0.66567   0.69091   0.77365

 Mulliken charges:
               1
     1  C   -0.339668
     2  H    0.172498
     3  H    0.174023
     4  C   -0.345732
     5  H    0.169651
     6  H    0.169229
 Sum of Mulliken charges =  -0.00000

 Dipole moment (field-independent basis, Debye):
    X=              0.0049    Y=              0.0245    Z=             -0.1183  Tot=              0.1210
 Quadrupole moment (field-independent basis, Debye-Ang):
   XX=            -12.2021   YY=            -12.2213   ZZ=            -15.6696
   XY=              0.0106   XZ=              0.0006   YZ=             -0.0020

 Normal termination of Gaussian 16 at Wed Jan 11 19:53:55 2023.
