 Gaussian 16, Revision C.01,
 Gaussian 16:  ES64L-G16RevC.01  3-Jul-2019

 -------------------------------------------------------
 # WB97XD/6-311G SCF=XQC FORCE nosym pop=full guess=read
 -------------------------------------------------------

 -----------
 MD Step 999
 -----------
 Symbolic Z-matrix:
 Charge =  0 Multiplicity = 1

                          Input orientation:
 ---------------------------------------------------------------------
 Center     Atomic      Atomic             Coordinates (Angstroms)
 Number     Number       Type             X           Y           Z
 ---------------------------------------------------------------------
      1          6           0       -0.335547   -0.580599    0.007908
      2          1           0        0.212327   -1.530122   -0.029952
      3          1           0       -1.420210   -0.593422   -0.031129
      4          6           0        0.332843    0.576994    0.006213
      5          1           0       -0.163035    1.565344   -0.033402
      6          1           0        1.445007    0.643032   -0.031905
 ---------------------------------------------------------------------

 SCF Done:  E(RwB97XD) =  -78.5556756480     A.U. after    8 cycles

 Alpha  occ. eigenvalues --  -10.29070 -10.28777  -0.86401  -0.67208  -0.55885
 Alpha  occ. eigenvalues --   -0.51003  -0.43594  -0.35714
 Alpha virt. eigenvalues --    0.07990   0.14096   0.16441   0.16997   0.24088
 Alpha virt. eigenvalues --    0.37567   0.39228   0.39846   0.46351   0.48831
 Alpha virt. eigenvalues --    0.49361   0.59115   0.66512   0.69049   0.77235

 Mulliken charges:
               1
     1  C   -0.339518
     2  H    0.172802
     3  H    0.174546
     4  C   -0.345248
     5  H    0.169021
     6  H    0.168398
 Sum of Mulliken charges =  -0.00000

 Dipole moment (field-independent basis, Debye):
    X=             -0.0008    Y=              0.0149    Z=             -0.1279  Tot=              0.1288
 Quadrupole moment (field-independent basis, Debye-Ang):
   XX=            -12.2128   YY=            -12.2142   ZZ=            -15.6659
   XY=              0.0238   XZ=              0.0006   YZ=             -0.0029

 Normal termination of Gaussian 16 at Wed Jan 11 18:44:04 2023.
