 Gaussian 16, Revision C.01,
 Gaussian 16:  ES64L-G16RevC.01  3-Jul-2019

 -------------------------------------------------------
 # WB97XD/6-311G SCF=XQC FORCE nosym pop=full guess=read
 -------------------------------------------------------

 ------------
 MD Step 1000
 ------------
 Symbolic Z-matrix:
 Charge =  0 Multiplicity = 1

                          Input orientation:
 ---------------------------------------------------------------------
 Center     Atomic      Atomic             Coordinates (Angstroms)
 Number     Number       Type             X           Y           Z
 ---------------------------------------------------------------------
      1          6           0       -0.336967   -0.583470    0.003938
      2          1           0        0.225222   -1.519226   -0.005369
      3          1           0       -1.420429   -0.577767   -0.006171
      4          6           0        0.332857    0.576503    0.002189
      5          1           0       -0.155523    1.572082   -0.008742
      6          1           0        1.444312    0.652524   -0.008105
 ---------------------------------------------------------------------

 SCF Done:  E(RwB97XD) =  -78.5554220818     A.U. after    8 cycles

 Alpha  occ. eigenvalues --  -10.29083 -10.28758  -0.86369  -0.67219  -0.56014
 Alpha  occ. eigenvalues --   -0.50862  -0.43673  -0.35664
 Alpha virt. eigenvalues --    0.07976   0.14086   0.16486   0.17022   0.24057
 Alpha virt. eigenvalues --    0.37102   0.39419   0.40015   0.46377   0.48881
 Alpha virt. eigenvalues --    0.49392   0.59091   0.66584   0.69202   0.77202

 Mulliken charges:
               1
     1  C   -0.339380
     2  H    0.174624
     3  H    0.176041
     4  C   -0.347721
     5  H    0.168365
     6  H    0.168071
 Sum of Mulliken charges =  -0.00000

 Dipole moment (field-independent basis, Debye):
    X=              0.0071    Y=              0.0219    Z=             -0.0337  Tot=              0.0408
 Quadrupole moment (field-independent basis, Debye-Ang):
   XX=            -12.1962   YY=            -12.2231   ZZ=            -15.6776
   XY=              0.0045   XZ=             -0.0005   YZ=             -0.0034

 Normal termination of Gaussian 16 at Wed Jan 11 18:39:31 2023.
