 Gaussian 16, Revision C.01,
 Gaussian 16:  ES64L-G16RevC.01  3-Jul-2019

 -------------------------------------------------------
 # WB97XD/6-311G SCF=XQC FORCE nosym pop=full guess=read
 -------------------------------------------------------

 -----------
 MD Step 999
 -----------
 Symbolic Z-matrix:
 Charge =  0 Multiplicity = 1

                          Input orientation:
 ---------------------------------------------------------------------
 Center     Atomic      Atomic             Coordinates (Angstroms)
 Number     Number       Type             X           Y           Z
 ---------------------------------------------------------------------
      1          6           0       -0.336396   -0.582388    0.005974
      2          1           0        0.219097   -1.525490   -0.018779
      3          1           0       -1.420347   -0.582336   -0.019129
      4          6           0        0.332807    0.576353    0.004268
      5          1           0       -0.158991    1.570360   -0.020671
      6          1           0        1.446179    0.652573   -0.020275
 ---------------------------------------------------------------------

 SCF Done:  E(RwB97XD) =  -78.5554135136     A.U. after    8 cycles

 Alpha  occ. eigenvalues --  -10.29111 -10.28781  -0.86377  -0.67194  -0.55929
 Alpha  occ. eigenvalues --   -0.50936  -0.43603  -0.35692
 Alpha virt. eigenvalues --    0.07985   0.14081   0.16445   0.16985   0.24062
 Alpha virt. eigenvalues --    0.37287   0.39281   0.39986   0.46318   0.48821
 Alpha virt. eigenvalues --    0.49373   0.59096   0.66529   0.69074   0.77183

 Mulliken charges:
               1
     1  C   -0.339288
     2  H    0.174003
     3  H    0.175456
     4  C   -0.346759
     5  H    0.168413
     6  H    0.168175
 Sum of Mulliken charges =   0.00000

 Dipole moment (field-independent basis, Debye):
    X=              0.0025    Y=              0.0200    Z=             -0.0824  Tot=              0.0848
 Quadrupole moment (field-independent basis, Debye-Ang):
   XX=            -12.2065   YY=            -12.2171   ZZ=            -15.6769
   XY=              0.0171   XZ=             -0.0000   YZ=             -0.0010

 Normal termination of Gaussian 16 at Wed Jan 11 18:34:38 2023.
