 Gaussian 16, Revision C.01,
 Gaussian 16:  ES64L-G16RevC.01  3-Jul-2019

 ----------------------------------------------------------------------
 # AM1/sto-3g TD=(read,singlets,nstates=4,root=3) FORCE nosym pop=full
 guess=read
 ----------------------------------------------------------------------

 ---------
 MD Step 1
 ---------
 Symbolic Z-matrix:
 Charge =  0 Multiplicity = 1

                          Input orientation:
 ---------------------------------------------------------------------
 Center     Atomic      Atomic             Coordinates (Angstroms)
 Number     Number       Type             X           Y           Z
 ---------------------------------------------------------------------
      1          6           0       -1.596110   -0.228833    0.000000
      2          6           0       -0.200950   -0.228833    0.000000
      3          6           0        0.496588    0.978918    0.000000
      4          6           0       -0.201066    2.187427   -0.001199
      5          6           0       -1.595891    2.187349   -0.001678
      6          6           0       -2.293492    0.979143   -0.000682
      7          1           0       -2.145869   -1.181150    0.000450
      8          1           0        0.348558   -1.181346    0.001315
      9          1           0        1.596268    0.978998    0.000634
     10          1           0        0.349134    3.139570   -0.001258
     11          1           0       -2.146013    3.139630   -0.002631
     12          1           0       -3.393096    0.979326   -0.000862
 ---------------------------------------------------------------------

 SCF Done:  E(RAM1) =  0.349530586474E-01 A.U. after    2 cycles

 Excitation energies and oscillator strengths:

 Excited state symmetry could not be determined.
 Excited State   1:      Singlet-?Sym    3.8443 eV  322.52 nm  f=0.0000  <S**2>=0.000
      14 -> 16         0.50434
      15 -> 17         0.50442

 Excited state symmetry could not be determined.
 Excited State   2:      Singlet-?Sym    4.1842 eV  296.32 nm  f=0.0000  <S**2>=0.000
      11 -> 18         0.11333
      14 -> 17        -0.49314
      15 -> 16         0.49382

 Excited state symmetry could not be determined.
 Excited State   3:      Singlet-?Sym    5.4853 eV  226.03 nm  f=0.3785  <S**2>=0.000
      14 -> 16        -0.21823
      14 -> 17         0.44993
      15 -> 16         0.44934
      15 -> 17         0.21819
 This state for optimization and/or second-order correction.
 Total Energy, E(TD-HF/TD-DFT) =  0.236535636693
 Copying the excited state density for this state as the 1-particle RhoCI density.

 Excited state symmetry could not be determined.
 Excited State   4:      Singlet-?Sym    5.4856 eV  226.02 nm  f=0.3787  <S**2>=0.000
      14 -> 16         0.44967
      14 -> 17         0.21836
      15 -> 16         0.21806
      15 -> 17        -0.44960

 Alpha  occ. eigenvalues --   -1.43865  -1.15288  -1.15282  -0.84749  -0.84743
 Alpha  occ. eigenvalues --   -0.65620  -0.59250  -0.56597  -0.52042  -0.52040
 Alpha  occ. eigenvalues --   -0.49177  -0.43692  -0.43686  -0.35477  -0.35473
 Alpha virt. eigenvalues --    0.02037   0.02041   0.10944   0.14831   0.14834
 Alpha virt. eigenvalues --    0.14876   0.15409   0.16900   0.16901   0.18827
 Alpha virt. eigenvalues --    0.18828   0.20624   0.20625   0.21054   0.22541

 Mulliken charges:
               1
     1  C   -0.130115
     2  C   -0.130114
     3  C   -0.130123
     4  C   -0.130114
     5  C   -0.130113
     6  C   -0.130118
     7  H    0.130115
     8  H    0.130093
     9  H    0.130133
    10  H    0.130134
    11  H    0.130113
    12  H    0.130110
 Sum of Mulliken charges =   0.00000

 Dipole moment (field-independent basis, Debye):
    X=              0.0001    Y=              0.0002    Z=              0.0008  Tot=              0.0009
 N-N= 1.196010023102D+02 E-N=-1.705415444274D+02  KE=-4.785091947864D+01
 Orbital energies and kinetic energies (alpha):
                                 1                 2
   1         O                -1.438652         -2.451606
   2         O                -1.152884         -2.128927
   3         O                -1.152818         -2.128854
   4         O                -0.847490         -1.766623
   5         O                -0.847432         -1.766556
   6         O                -0.656201         -1.366099
   7         O                -0.592495         -1.255569

 Normal termination of Gaussian 16 at Tue Dec 27 19:59:42 2022.
