 Gaussian 16, Revision C.01,
 Gaussian 16:  ES64L-G16RevC.01  3-Jul-2019

 ----------------------------------------------------------------------
 # BLYP/sto-3g TD=(read,singlets,nstates=4,root=3) FORCE nosym pop=full
  guess=read
 ----------------------------------------------------------------------

 ---------
 MD Step 1
 ---------
 Symbolic Z-matrix:
 Charge =  0 Multiplicity = 1

                          Input orientation:
 ---------------------------------------------------------------------
 Center     Atomic      Atomic             Coordinates (Angstroms)
 Number     Number       Type             X           Y           Z
 ---------------------------------------------------------------------
      1          3           0        0.000000    0.000000    0.000000
      2          1           0        0.000000    0.000000    1.000000
 ---------------------------------------------------------------------

 SCF Done:  E(RB-LYP) =  -7.85074979042     A.U. after    1 cycles

 Excitation energies and oscillator strengths:

 Excited state symmetry could not be determined.
 Excited State   1:      Singlet-?Sym    3.2434 eV  382.26 nm  f=0.0034  <S**2>=0.000
       2 ->  3         0.70618

 Excited state symmetry could not be determined.
 Excited State   2:      Singlet-?Sym    5.4668 eV  226.79 nm  f=0.2162  <S**2>=0.000
       2 ->  4         0.22154
       2 ->  5        -0.67249

 Excited state symmetry could not be determined.
 Excited State   3:      Singlet-?Sym    5.4668 eV  226.79 nm  f=0.2162  <S**2>=0.000
       2 ->  4         0.67249
       2 ->  5         0.22154
 This state for optimization and/or second-order correction.
 Total Energy, E(TD-HF/TD-DFT) =  -7.64984685658
 Copying the excited state density for this state as the 1-particle RhoCI density.

 Excited state symmetry could not be determined.
 Excited State   4:      Singlet-?Sym   18.8436 eV   65.80 nm  f=0.0032  <S**2>=0.000
       2 ->  6         0.71051

 Alpha  occ. eigenvalues --   -1.78719  -0.15069
 Alpha virt. eigenvalues --   -0.03226   0.03062   0.03062   0.40426

 Mulliken charges:
               1
     1  Li   0.019558
     2  H   -0.019558
 Sum of Mulliken charges =  -0.00000

 Dipole moment (field-independent basis, Debye):
    X=             -0.0000    Y=              0.0000    Z=             -4.7897  Tot=              4.7897
 Quadrupole moment (field-independent basis, Debye-Ang):
   XX=             -4.9200   YY=             -4.9200   ZZ=             -8.5882
   XY=              0.0000   XZ=             -0.0000   YZ=              0.0000

 Normal termination of Gaussian 16 at Wed Dec 28 17:06:48 2022.
