 Gaussian 16, Revision C.01,
 Gaussian 16:  ES64L-G16RevC.01  3-Jul-2019

 -------------------------------------------------------
 # WB97XD/6-311G SCF=XQC FORCE nosym pop=full guess=read
 -------------------------------------------------------

 ------------
 MD Step 1000
 ------------
 Symbolic Z-matrix:
 Charge =  0 Multiplicity = 1

                          Input orientation:
 ---------------------------------------------------------------------
 Center     Atomic      Atomic             Coordinates (Angstroms)
 Number     Number       Type             X           Y           Z
 ---------------------------------------------------------------------
      1          6           0       -0.336944   -0.583013    0.004946
      2          1           0        0.224593   -1.527112   -0.013260
      3          1           0       -1.422026   -0.577204   -0.013725
      4          6           0        0.332976    0.576959    0.003392
      5          1           0       -0.153012    1.563099   -0.015245
      6          1           0        1.440205    0.655822   -0.014640
 ---------------------------------------------------------------------

 SCF Done:  E(RwB97XD) =  -78.5556467243     A.U. after    8 cycles

 Alpha  occ. eigenvalues --  -10.28964 -10.28831  -0.86364  -0.67285  -0.55982
 Alpha  occ. eigenvalues --   -0.50902  -0.43693  -0.35658
 Alpha virt. eigenvalues --    0.07968   0.14108   0.16514   0.17032   0.24080
 Alpha virt. eigenvalues --    0.37122   0.39402   0.40084   0.46471   0.48881
 Alpha virt. eigenvalues --    0.49399   0.59096   0.66616   0.69204   0.77339

 Mulliken charges:
               1
     1  C   -0.339362
     2  H    0.173833
     3  H    0.175387
     4  C   -0.347628
     5  H    0.169179
     6  H    0.168590
 Sum of Mulliken charges =  -0.00000

 Dipole moment (field-independent basis, Debye):
    X=              0.0053    Y=              0.0318    Z=             -0.0612  Tot=              0.0691
 Quadrupole moment (field-independent basis, Debye-Ang):
   XX=            -12.1994   YY=            -12.2132   ZZ=            -15.6709
   XY=              0.0129   XZ=              0.0002   YZ=             -0.0013

 Normal termination of Gaussian 16 at Wed Jan 11 18:43:42 2023.
