 Gaussian 16, Revision C.01,
 Gaussian 16:  ES64L-G16RevC.01  3-Jul-2019

 -------------------------------------------------------
 # WB97XD/6-311G SCF=XQC FORCE nosym pop=full guess=read
 -------------------------------------------------------

 ------------
 MD Step 1000
 ------------
 Symbolic Z-matrix:
 Charge =  0 Multiplicity = 1

                          Input orientation:
 ---------------------------------------------------------------------
 Center     Atomic      Atomic             Coordinates (Angstroms)
 Number     Number       Type             X           Y           Z
 ---------------------------------------------------------------------
      1          6           0       -0.336440   -0.582531    0.006562
      2          1           0        0.220252   -1.527978   -0.022004
      3          1           0       -1.422978   -0.581027   -0.022668
      4          6           0        0.333344    0.577233    0.004822
      5          1           0       -0.158405    1.562696   -0.025364
      6          1           0        1.438916    0.650343   -0.024710
 ---------------------------------------------------------------------

 SCF Done:  E(RwB97XD) =  -78.5557672733     A.U. after    8 cycles

 Alpha  occ. eigenvalues --  -10.28972 -10.28825  -0.86368  -0.67265  -0.55972
 Alpha  occ. eigenvalues --   -0.50903  -0.43702  -0.35662
 Alpha virt. eigenvalues --    0.07960   0.14106   0.16504   0.17040   0.24085
 Alpha virt. eigenvalues --    0.37245   0.39403   0.39954   0.46481   0.48875
 Alpha virt. eigenvalues --    0.49396   0.59100   0.66602   0.69185   0.77336

 Mulliken charges:
               1
     1  C   -0.339478
     2  H    0.173491
     3  H    0.174853
     4  C   -0.346829
     5  H    0.169056
     6  H    0.168907
 Sum of Mulliken charges =   0.00000

 Dipole moment (field-independent basis, Debye):
    X=              0.0058    Y=              0.0260    Z=             -0.0976  Tot=              0.1012
 Quadrupole moment (field-independent basis, Debye-Ang):
   XX=            -12.1999   YY=            -12.2187   ZZ=            -15.6688
   XY=              0.0090   XZ=             -0.0009   YZ=             -0.0036

 Normal termination of Gaussian 16 at Wed Jan 11 18:50:27 2023.
