 Gaussian 16, Revision C.01,
 Gaussian 16:  ES64L-G16RevC.01  3-Jul-2019

 -------------------------------------------------------
 # WB97XD/6-311G SCF=XQC FORCE nosym pop=full guess=read
 -------------------------------------------------------

 ------------
 MD Step 1000
 ------------
 Symbolic Z-matrix:
 Charge =  0 Multiplicity = 1

                          Input orientation:
 ---------------------------------------------------------------------
 Center     Atomic      Atomic             Coordinates (Angstroms)
 Number     Number       Type             X           Y           Z
 ---------------------------------------------------------------------
      1          6           0       -0.336354   -0.581038    0.007843
      2          1           0        0.219330   -1.535715   -0.030544
      3          1           0       -1.423163   -0.589112   -0.030758
      4          6           0        0.333353    0.578174    0.006054
      5          1           0       -0.158387    1.555523   -0.032511
      6          1           0        1.437698    0.643139   -0.032066
 ---------------------------------------------------------------------

 SCF Done:  E(RwB97XD) =  -78.5558589087     A.U. after    8 cycles

 Alpha  occ. eigenvalues --  -10.28937 -10.28847  -0.86374  -0.67278  -0.55935
 Alpha  occ. eigenvalues --   -0.50934  -0.43703  -0.35670
 Alpha virt. eigenvalues --    0.07954   0.14107   0.16502   0.17045   0.24101
 Alpha virt. eigenvalues --    0.37401   0.39368   0.39867   0.46522   0.48860
 Alpha virt. eigenvalues --    0.49393   0.59107   0.66586   0.69152   0.77418

 Mulliken charges:
               1
     1  C   -0.339673
     2  H    0.172025
     3  H    0.174233
     4  C   -0.345804
     5  H    0.170092
     6  H    0.169127
 Sum of Mulliken charges =   0.00000

 Dipole moment (field-independent basis, Debye):
    X=              0.0014    Y=              0.0290    Z=             -0.1275  Tot=              0.1308
 Quadrupole moment (field-independent basis, Debye-Ang):
   XX=            -12.2023   YY=            -12.2187   ZZ=            -15.6635
   XY=              0.0128   XZ=             -0.0006   YZ=             -0.0013

 Normal termination of Gaussian 16 at Wed Jan 11 19:43:02 2023.
