 Gaussian 16, Revision C.01,
 Gaussian 16:  ES64L-G16RevC.01  3-Jul-2019

 ----------------------------------------------------------------------
 # BLYP/3-21G* SCF=XQC TD=(read,singlets,nstates=8,root=4) FORCE nosym
 pop=full guess=read
 ----------------------------------------------------------------------

 -----------
 MD Step 999
 -----------
 Symbolic Z-matrix:
 Charge =  0 Multiplicity = 1

                          Input orientation:
 ---------------------------------------------------------------------
 Center     Atomic      Atomic             Coordinates (Angstroms)
 Number     Number       Type             X           Y           Z
 ---------------------------------------------------------------------
      1          3           0        2.213375    2.210083    1.690662
      2          9           0        0.664993    0.666123    3.855904
 ---------------------------------------------------------------------

 SCF Done:  E(RB-LYP) =  -106.664490497     A.U. after    1 cycles

 Excitation energies and oscillator strengths:

 Excited state symmetry could not be determined.
 Excited State   1:      Singlet-?Sym    0.3310 eV 3746.07 nm  f=0.0024  <S**2>=0.000
       6 ->  7         0.71007

 Excited state symmetry could not be determined.
 Excited State   2:      Singlet-?Sym    0.3310 eV 3745.83 nm  f=0.0024  <S**2>=0.000
       5 ->  7         0.71008

 Excited state symmetry could not be determined.
 Excited State   3:      Singlet-?Sym    1.4415 eV  860.08 nm  f=0.0145  <S**2>=0.000
       4 ->  7         0.64257
       5 ->  8         0.21730
       6 ->  9         0.21729
       4 <-  7        -0.11159

 Excited state symmetry could not be determined.
 Excited State   4:      Singlet-?Sym    2.0070 eV  617.76 nm  f=0.0000  <S**2>=0.000
       5 ->  9         0.49840
       6 ->  8         0.49878
 This state for optimization and/or second-order correction.
 Total Energy, E(TD-HF/TD-DFT) =  -106.590734511
 Copying the excited state density for this state as the 1-particle RhoCI density.

 Excited state symmetry could not be determined.
 Excited State   5:      Singlet-?Sym    2.0070 eV  617.76 nm  f=0.0000  <S**2>=0.000
       5 ->  8        -0.49859
       6 ->  9         0.49859

 Excited state symmetry could not be determined.
 Excited State   6:      Singlet-?Sym    2.0174 eV  614.58 nm  f=0.0000  <S**2>=0.000
       5 ->  9         0.50011
       6 ->  8        -0.49973

 Excited state symmetry could not be determined.
 Excited State   7:      Singlet-?Sym    2.7668 eV  448.12 nm  f=0.0943  <S**2>=0.000
       4 ->  9         0.69323
       6 -> 10         0.13673

 Excited state symmetry could not be determined.
 Excited State   8:      Singlet-?Sym    2.7668 eV  448.12 nm  f=0.0943  <S**2>=0.000
       4 ->  8         0.69324
       5 -> 10         0.13671

 Alpha  occ. eigenvalues --  -23.95333  -1.95126  -0.80826  -0.14557  -0.11829
 Alpha  occ. eigenvalues --   -0.11829
 Alpha virt. eigenvalues --   -0.10827  -0.04415  -0.04415  -0.00466   0.06758
 Alpha virt. eigenvalues --    0.07063   0.07064   0.10872   1.90341   1.90341
 Alpha virt. eigenvalues --    1.91168   3.04091

 Mulliken charges:
               1
     1  Li   0.344666
     2  F   -0.344666
 Sum of Mulliken charges =   0.00000

 Dipole moment (field-independent basis, Debye):
    X=              3.6030    Y=              3.5927    Z=             -5.0384  Tot=              7.1606
 Quadrupole moment (field-independent basis, Debye-Ang):
   XX=              0.8021   YY=              0.7572   ZZ=            -36.2501
   XY=             11.6711   XZ=              0.8910   YZ=              0.8732

 Normal termination of Gaussian 16 at Thu Dec 29 13:10:28 2022.
