 Gaussian 16, Revision C.01,
 Gaussian 16:  ES64L-G16RevC.01  3-Jul-2019

 -------------------------------------------------------
 # WB97XD/6-311G SCF=XQC FORCE nosym pop=full guess=read
 -------------------------------------------------------

 ------------
 MD Step 1000
 ------------
 Symbolic Z-matrix:
 Charge =  0 Multiplicity = 1

                          Input orientation:
 ---------------------------------------------------------------------
 Center     Atomic      Atomic             Coordinates (Angstroms)
 Number     Number       Type             X           Y           Z
 ---------------------------------------------------------------------
      1          6           0       -0.338155   -0.585252    0.006863
      2          1           0        0.237844   -1.520480   -0.020432
      3          1           0       -1.425537   -0.565316   -0.021665
      4          6           0        0.332751    0.576081    0.004436
      5          1           0       -0.147345    1.575585   -0.025063
      6          1           0        1.443198    0.663242   -0.023718
 ---------------------------------------------------------------------

 SCF Done:  E(RwB97XD) =  -78.5544678978     A.U. after    8 cycles

 Alpha  occ. eigenvalues --  -10.29109 -10.28926  -0.86323  -0.67158  -0.55973
 Alpha  occ. eigenvalues --   -0.50776  -0.43607  -0.35645
 Alpha virt. eigenvalues --    0.07915   0.14027   0.16431   0.16954   0.24027
 Alpha virt. eigenvalues --    0.36676   0.39384   0.40268   0.46341   0.48796
 Alpha virt. eigenvalues --    0.49397   0.59055   0.66526   0.68996   0.77163

 Mulliken charges:
               1
     1  C   -0.339141
     2  H    0.175352
     3  H    0.176779
     4  C   -0.349569
     5  H    0.168357
     6  H    0.168223
 Sum of Mulliken charges =   0.00000

 Dipole moment (field-independent basis, Debye):
    X=              0.0134    Y=              0.0357    Z=             -0.0945  Tot=              0.1019
 Quadrupole moment (field-independent basis, Debye-Ang):
   XX=            -12.2004   YY=            -12.2395   ZZ=            -15.6960
   XY=             -0.0052   XZ=             -0.0001   YZ=             -0.0044

 Normal termination of Gaussian 16 at Wed Jan 11 18:44:46 2023.
