 Gaussian 16, Revision C.01,
 Gaussian 16:  ES64L-G16RevC.01  3-Jul-2019

 -------------------------------------------------------
 # WB97XD/6-311G SCF=XQC FORCE nosym pop=full guess=read
 -------------------------------------------------------

 ------------
 MD Step 1000
 ------------
 Symbolic Z-matrix:
 Charge =  0 Multiplicity = 1

                          Input orientation:
 ---------------------------------------------------------------------
 Center     Atomic      Atomic             Coordinates (Angstroms)
 Number     Number       Type             X           Y           Z
 ---------------------------------------------------------------------
      1          6           0       -0.335798   -0.581133    0.008162
      2          1           0        0.212531   -1.531374   -0.031622
      3          1           0       -1.421723   -0.593274   -0.032826
      4          6           0        0.333504    0.578135    0.006469
      5          1           0       -0.164132    1.561343   -0.034905
      6          1           0        1.442276    0.640650   -0.033367
 ---------------------------------------------------------------------

 SCF Done:  E(RwB97XD) =  -78.5558367445     A.U. after    8 cycles

 Alpha  occ. eigenvalues --  -10.29022 -10.28812  -0.86370  -0.67243  -0.55911
 Alpha  occ. eigenvalues --   -0.50952  -0.43673  -0.35676
 Alpha virt. eigenvalues --    0.07949   0.14102   0.16476   0.17026   0.24091
 Alpha virt. eigenvalues --    0.37526   0.39306   0.39779   0.46452   0.48835
 Alpha virt. eigenvalues --    0.49387   0.59102   0.66561   0.69095   0.77296

 Mulliken charges:
               1
     1  C   -0.339812
     2  H    0.172591
     3  H    0.174255
     4  C   -0.345282
     5  H    0.169432
     6  H    0.168815
 Sum of Mulliken charges =  -0.00000

 Dipole moment (field-independent basis, Debye):
    X=              0.0003    Y=              0.0169    Z=             -0.1342  Tot=              0.1353
 Quadrupole moment (field-independent basis, Debye-Ang):
   XX=            -12.2071   YY=            -12.2174   ZZ=            -15.6666
   XY=              0.0158   XZ=              0.0009   YZ=             -0.0026

 Normal termination of Gaussian 16 at Wed Jan 11 18:44:20 2023.
