 Gaussian 16, Revision C.01,
 Gaussian 16:  ES64L-G16RevC.01  3-Jul-2019

 -------------------------------------------------------
 # WB97XD/6-311G SCF=XQC FORCE nosym pop=full guess=read
 -------------------------------------------------------

 -----------
 MD Step 999
 -----------
 Symbolic Z-matrix:
 Charge =  0 Multiplicity = 1

                          Input orientation:
 ---------------------------------------------------------------------
 Center     Atomic      Atomic             Coordinates (Angstroms)
 Number     Number       Type             X           Y           Z
 ---------------------------------------------------------------------
      1          6           0       -0.336072   -0.581339    0.007841
      2          1           0        0.222560   -1.531532   -0.027080
      3          1           0       -1.422770   -0.581912   -0.027640
      4          6           0        0.333026    0.576935    0.006192
      5          1           0       -0.156170    1.563798   -0.031452
      6          1           0        1.443022    0.652476   -0.030706
 ---------------------------------------------------------------------

 SCF Done:  E(RwB97XD) =  -78.5554082476     A.U. after    8 cycles

 Alpha  occ. eigenvalues --  -10.29015 -10.28873  -0.86383  -0.67199  -0.55900
 Alpha  occ. eigenvalues --   -0.50943  -0.43598  -0.35699
 Alpha virt. eigenvalues --    0.07977   0.14077   0.16439   0.16984   0.24077
 Alpha virt. eigenvalues --    0.37267   0.39278   0.40015   0.46380   0.48806
 Alpha virt. eigenvalues --    0.49368   0.59103   0.66520   0.69019   0.77280

 Mulliken charges:
               1
     1  C   -0.339196
     2  H    0.173117
     3  H    0.174945
     4  C   -0.346557
     5  H    0.169171
     6  H    0.168520
 Sum of Mulliken charges =   0.00000

 Dipole moment (field-independent basis, Debye):
    X=              0.0022    Y=              0.0286    Z=             -0.1201  Tot=              0.1234
 Quadrupole moment (field-independent basis, Debye-Ang):
   XX=            -12.2088   YY=            -12.2217   ZZ=            -15.6732
   XY=              0.0153   XZ=             -0.0022   YZ=             -0.0056

 Normal termination of Gaussian 16 at Wed Jan 11 18:38:22 2023.
