 Gaussian 16, Revision C.01,
 Gaussian 16:  ES64L-G16RevC.01  3-Jul-2019

 -------------------------------------------------------
 # WB97XD/6-311G SCF=XQC FORCE nosym pop=full guess=read
 -------------------------------------------------------

 ------------
 MD Step 1000
 ------------
 Symbolic Z-matrix:
 Charge =  0 Multiplicity = 1

                          Input orientation:
 ---------------------------------------------------------------------
 Center     Atomic      Atomic             Coordinates (Angstroms)
 Number     Number       Type             X           Y           Z
 ---------------------------------------------------------------------
      1          6           0       -0.336299   -0.581631    0.007057
      2          1           0        0.220099   -1.528636   -0.023774
      3          1           0       -1.421028   -0.585612   -0.024826
      4          6           0        0.332832    0.577205    0.005172
      5          1           0       -0.157026    1.562390   -0.027363
      6          1           0        1.442744    0.648076   -0.026289
 ---------------------------------------------------------------------

 SCF Done:  E(RwB97XD) =  -78.5557089710     A.U. after    8 cycles

 Alpha  occ. eigenvalues --  -10.28993 -10.28810  -0.86386  -0.67249  -0.55947
 Alpha  occ. eigenvalues --   -0.50942  -0.43659  -0.35684
 Alpha virt. eigenvalues --    0.07978   0.14103   0.16485   0.17025   0.24087
 Alpha virt. eigenvalues --    0.37340   0.39341   0.39947   0.46434   0.48867
 Alpha virt. eigenvalues --    0.49382   0.59108   0.66574   0.69146   0.77312

 Mulliken charges:
               1
     1  C   -0.339408
     2  H    0.173120
     3  H    0.174946
     4  C   -0.346401
     5  H    0.169358
     6  H    0.168386
 Sum of Mulliken charges =  -0.00000

 Dipole moment (field-independent basis, Debye):
    X=              0.0014    Y=              0.0249    Z=             -0.1051  Tot=              0.1080
 Quadrupole moment (field-independent basis, Debye-Ang):
   XX=            -12.2045   YY=            -12.2164   ZZ=            -15.6669
   XY=              0.0149   XZ=             -0.0001   YZ=             -0.0033

 Normal termination of Gaussian 16 at Wed Jan 11 18:54:07 2023.
