 Gaussian 16, Revision C.01,
 Gaussian 16:  ES64L-G16RevC.01  3-Jul-2019

 -------------------------------------------------------
 # WB97XD/6-311G SCF=XQC FORCE nosym pop=full guess=read
 -------------------------------------------------------

 -----------
 MD Step 999
 -----------
 Symbolic Z-matrix:
 Charge =  0 Multiplicity = 1

                          Input orientation:
 ---------------------------------------------------------------------
 Center     Atomic      Atomic             Coordinates (Angstroms)
 Number     Number       Type             X           Y           Z
 ---------------------------------------------------------------------
      1          6           0       -0.337874   -0.584779    0.006561
      2          1           0        0.237999   -1.518774   -0.018450
      3          1           0       -1.424472   -0.564635   -0.019685
      4          6           0        0.332091    0.574853    0.004084
      5          1           0       -0.145175    1.578926   -0.023177
      6          1           0        1.444231    0.666438   -0.021854
 ---------------------------------------------------------------------

 SCF Done:  E(RwB97XD) =  -78.5542880349     A.U. after    8 cycles

 Alpha  occ. eigenvalues --  -10.29130 -10.28893  -0.86361  -0.67139  -0.55964
 Alpha  occ. eigenvalues --   -0.50832  -0.43531  -0.35683
 Alpha virt. eigenvalues --    0.07957   0.14029   0.16407   0.16933   0.24027
 Alpha virt. eigenvalues --    0.36692   0.39318   0.40376   0.46252   0.48823
 Alpha virt. eigenvalues --    0.49372   0.59071   0.66494   0.68984   0.77130

 Mulliken charges:
               1
     1  C   -0.338902
     2  H    0.175620
     3  H    0.177045
     4  C   -0.349727
     5  H    0.168006
     6  H    0.167958
 Sum of Mulliken charges =  -0.00000

 Dipole moment (field-independent basis, Debye):
    X=              0.0137    Y=              0.0349    Z=             -0.0868  Tot=              0.0946
 Quadrupole moment (field-independent basis, Debye-Ang):
   XX=            -12.2061   YY=            -12.2355   ZZ=            -15.6926
   XY=              0.0039   XZ=             -0.0002   YZ=             -0.0045

 Normal termination of Gaussian 16 at Wed Jan 11 18:44:32 2023.
