 Gaussian 16, Revision C.01,
 Gaussian 16:  ES64L-G16RevC.01  3-Jul-2019

 -------------------------------------------------------
 # WB97XD/6-311G SCF=XQC FORCE nosym pop=full guess=read
 -------------------------------------------------------

 ------------
 MD Step 1000
 ------------
 Symbolic Z-matrix:
 Charge =  0 Multiplicity = 1

                          Input orientation:
 ---------------------------------------------------------------------
 Center     Atomic      Atomic             Coordinates (Angstroms)
 Number     Number       Type             X           Y           Z
 ---------------------------------------------------------------------
      1          6           0       -0.336163   -0.581566    0.004123
      2          1           0        0.214149   -1.535875   -0.011239
      3          1           0       -1.422108   -0.587352   -0.011107
      4          6           0        0.333550    0.578161    0.003506
      5          1           0       -0.165588    1.559146   -0.013513
      6          1           0        1.445978    0.645958   -0.013731
 ---------------------------------------------------------------------

 SCF Done:  E(RwB97XD) =  -78.5559150743     A.U. after    8 cycles

 Alpha  occ. eigenvalues --  -10.29040 -10.28854  -0.86343  -0.67204  -0.55909
 Alpha  occ. eigenvalues --   -0.50901  -0.43678  -0.35667
 Alpha virt. eigenvalues --    0.07975   0.14082   0.16461   0.16996   0.24067
 Alpha virt. eigenvalues --    0.37411   0.39322   0.39773   0.46423   0.48730
 Alpha virt. eigenvalues --    0.49388   0.59088   0.66561   0.69048   0.77275

 Mulliken charges:
               1
     1  C   -0.339894
     2  H    0.172791
     3  H    0.174444
     4  C   -0.345527
     5  H    0.169442
     6  H    0.168743
 Sum of Mulliken charges =   0.00000

 Dipole moment (field-independent basis, Debye):
    X=             -0.0043    Y=              0.0221    Z=             -0.0537  Tot=              0.0583
 Quadrupole moment (field-independent basis, Debye-Ang):
   XX=            -12.2003   YY=            -12.2159   ZZ=            -15.6806
   XY=              0.0099   XZ=             -0.0026   YZ=             -0.0036

 Normal termination of Gaussian 16 at Wed Jan 11 18:37:09 2023.
