 Gaussian 16, Revision C.01,
 Gaussian 16:  ES64L-G16RevC.01  3-Jul-2019

 -------------------------------------------------------
 # WB97XD/6-311G SCF=XQC FORCE nosym pop=full guess=read
 -------------------------------------------------------

 -----------
 MD Step 999
 -----------
 Symbolic Z-matrix:
 Charge =  0 Multiplicity = 1

                          Input orientation:
 ---------------------------------------------------------------------
 Center     Atomic      Atomic             Coordinates (Angstroms)
 Number     Number       Type             X           Y           Z
 ---------------------------------------------------------------------
      1          6           0       -0.336296   -0.582347    0.004986
      2          1           0        0.222387   -1.522957   -0.012757
      3          1           0       -1.425738   -0.586605   -0.013909
      4          6           0        0.333003    0.576838    0.003174
      5          1           0       -0.158457    1.571564   -0.015350
      6          1           0        1.441996    0.644599   -0.014277
 ---------------------------------------------------------------------

 SCF Done:  E(RwB97XD) =  -78.5556753429     A.U. after    8 cycles

 Alpha  occ. eigenvalues --  -10.29069 -10.28822  -0.86366  -0.67176  -0.55941
 Alpha  occ. eigenvalues --   -0.50890  -0.43644  -0.35682
 Alpha virt. eigenvalues --    0.07988   0.14075   0.16447   0.16994   0.24063
 Alpha virt. eigenvalues --    0.37261   0.39349   0.39893   0.46367   0.48786
 Alpha virt. eigenvalues --    0.49378   0.59095   0.66544   0.69069   0.77225

 Mulliken charges:
               1
     1  C   -0.339447
     2  H    0.173676
     3  H    0.175092
     4  C   -0.346508
     5  H    0.168699
     6  H    0.168487
 Sum of Mulliken charges =  -0.00000

 Dipole moment (field-independent basis, Debye):
    X=              0.0098    Y=              0.0176    Z=             -0.0603  Tot=              0.0635
 Quadrupole moment (field-independent basis, Debye-Ang):
   XX=            -12.1986   YY=            -12.2247   ZZ=            -15.6802
   XY=              0.0071   XZ=              0.0012   YZ=             -0.0014

 Normal termination of Gaussian 16 at Wed Jan 11 18:49:59 2023.
