 Gaussian 16, Revision C.01,
 Gaussian 16:  ES64L-G16RevC.01  3-Jul-2019

 -------------------------------------------------------
 # WB97XD/6-311G SCF=XQC FORCE nosym pop=full guess=read
 -------------------------------------------------------

 ------------
 MD Step 1000
 ------------
 Symbolic Z-matrix:
 Charge =  0 Multiplicity = 1

                          Input orientation:
 ---------------------------------------------------------------------
 Center     Atomic      Atomic             Coordinates (Angstroms)
 Number     Number       Type             X           Y           Z
 ---------------------------------------------------------------------
      1          6           0       -0.337220   -0.583280    0.005601
      2          1           0        0.223964   -1.525547   -0.017084
      3          1           0       -1.420140   -0.578618   -0.017361
      4          6           0        0.332894    0.577025    0.003972
      5          1           0       -0.157617    1.567641   -0.019359
      6          1           0        1.446741    0.652451   -0.018869
 ---------------------------------------------------------------------

 SCF Done:  E(RwB97XD) =  -78.5553452109     A.U. after    8 cycles

 Alpha  occ. eigenvalues --  -10.29092 -10.28812  -0.86349  -0.67199  -0.55971
 Alpha  occ. eigenvalues --   -0.50855  -0.43665  -0.35658
 Alpha virt. eigenvalues --    0.07953   0.14070   0.16467   0.17002   0.24054
 Alpha virt. eigenvalues --    0.37138   0.39376   0.39964   0.46385   0.48816
 Alpha virt. eigenvalues --    0.49394   0.59081   0.66561   0.69106   0.77202

 Mulliken charges:
               1
     1  C   -0.339429
     2  H    0.174092
     3  H    0.175776
     4  C   -0.347298
     5  H    0.168779
     6  H    0.168078
 Sum of Mulliken charges =  -0.00000

 Dipole moment (field-independent basis, Debye):
    X=              0.0015    Y=              0.0250    Z=             -0.0763  Tot=              0.0803
 Quadrupole moment (field-independent basis, Debye-Ang):
   XX=            -12.1994   YY=            -12.2251   ZZ=            -15.6820
   XY=              0.0034   XZ=             -0.0005   YZ=             -0.0018

 Normal termination of Gaussian 16 at Wed Jan 11 19:42:31 2023.
