 Gaussian 16, Revision C.01,
 Gaussian 16:  ES64L-G16RevC.01  3-Jul-2019

 -------------------------------------------------------
 # WB97XD/6-311G SCF=XQC FORCE nosym pop=full guess=read
 -------------------------------------------------------

 -----------
 MD Step 999
 -----------
 Symbolic Z-matrix:
 Charge =  0 Multiplicity = 1

                          Input orientation:
 ---------------------------------------------------------------------
 Center     Atomic      Atomic             Coordinates (Angstroms)
 Number     Number       Type             X           Y           Z
 ---------------------------------------------------------------------
      1          6           0       -0.334959   -0.579970    0.003989
      2          1           0        0.208067   -1.536811   -0.010494
      3          1           0       -1.425342   -0.599309   -0.011518
      4          6           0        0.333549    0.577969    0.003297
      5          1           0       -0.170580    1.564721   -0.012573
      6          1           0        1.445365    0.635933   -0.011531
 ---------------------------------------------------------------------

 SCF Done:  E(RwB97XD) =  -78.5560469517     A.U. after    8 cycles

 Alpha  occ. eigenvalues --  -10.29095 -10.28855  -0.86361  -0.67136  -0.55830
 Alpha  occ. eigenvalues --   -0.50964  -0.43595  -0.35710
 Alpha virt. eigenvalues --    0.08017   0.14069   0.16399   0.16951   0.24066
 Alpha virt. eigenvalues --    0.37636   0.39207   0.39655   0.46317   0.48650
 Alpha virt. eigenvalues --    0.49356   0.59099   0.66489   0.68905   0.77207

 Mulliken charges:
               1
     1  C   -0.340075
     2  H    0.172196
     3  H    0.173741
     4  C   -0.344140
     5  H    0.169289
     6  H    0.168989
 Sum of Mulliken charges =   0.00000

 Dipole moment (field-independent basis, Debye):
    X=             -0.0011    Y=              0.0100    Z=             -0.0502  Tot=              0.0512
 Quadrupole moment (field-independent basis, Debye-Ang):
   XX=            -12.2071   YY=            -12.2133   ZZ=            -15.6832
   XY=              0.0180   XZ=              0.0009   YZ=             -0.0020

 Normal termination of Gaussian 16 at Wed Jan 11 18:39:46 2023.
