 Gaussian 16, Revision C.01,
 Gaussian 16:  ES64L-G16RevC.01  3-Jul-2019

 -------------------------------------------------------
 # WB97XD/6-311G SCF=XQC FORCE nosym pop=full guess=read
 -------------------------------------------------------

 ------------
 MD Step 1000
 ------------
 Symbolic Z-matrix:
 Charge =  0 Multiplicity = 1

                          Input orientation:
 ---------------------------------------------------------------------
 Center     Atomic      Atomic             Coordinates (Angstroms)
 Number     Number       Type             X           Y           Z
 ---------------------------------------------------------------------
      1          6           0       -0.335925   -0.581040    0.005125
      2          1           0        0.215299   -1.529802   -0.015534
      3          1           0       -1.421107   -0.593273   -0.016220
      4          6           0        0.333352    0.578114    0.004166
      5          1           0       -0.162197    1.562176   -0.017750
      6          1           0        1.442748    0.639843   -0.017121
 ---------------------------------------------------------------------

 SCF Done:  E(RwB97XD) =  -78.5561010274     A.U. after    8 cycles

 Alpha  occ. eigenvalues --  -10.29004 -10.28789  -0.86372  -0.67249  -0.55944
 Alpha  occ. eigenvalues --   -0.50937  -0.43696  -0.35675
 Alpha virt. eigenvalues --    0.07987   0.14109   0.16494   0.17033   0.24086
 Alpha virt. eigenvalues --    0.37487   0.39358   0.39776   0.46451   0.48828
 Alpha virt. eigenvalues --    0.49387   0.59106   0.66590   0.69158   0.77310

 Mulliken charges:
               1
     1  C   -0.339881
     2  H    0.172642
     3  H    0.174555
     4  C   -0.345442
     5  H    0.169500
     6  H    0.168625
 Sum of Mulliken charges =  -0.00000

 Dipole moment (field-independent basis, Debye):
    X=              0.0003    Y=              0.0173    Z=             -0.0707  Tot=              0.0728
 Quadrupole moment (field-independent basis, Debye-Ang):
   XX=            -12.1996   YY=            -12.2132   ZZ=            -15.6689
   XY=              0.0142   XZ=             -0.0002   YZ=             -0.0022

 Normal termination of Gaussian 16 at Wed Jan 11 16:35:51 2023.
