 Gaussian 16, Revision C.01,
 Gaussian 16:  ES64L-G16RevC.01  3-Jul-2019

 -------------------------------------------------------
 # WB97XD/6-311G SCF=XQC FORCE nosym pop=full guess=read
 -------------------------------------------------------

 ------------
 MD Step 1000
 ------------
 Symbolic Z-matrix:
 Charge =  0 Multiplicity = 1

                          Input orientation:
 ---------------------------------------------------------------------
 Center     Atomic      Atomic             Coordinates (Angstroms)
 Number     Number       Type             X           Y           Z
 ---------------------------------------------------------------------
      1          6           0       -0.336136   -0.582614    0.007585
      2          1           0        0.216534   -1.525442   -0.026394
      3          1           0       -1.420446   -0.580491   -0.027097
      4          6           0        0.333626    0.577062    0.005851
      5          1           0       -0.160729    1.566506   -0.030148
      6          1           0        1.441745    0.652754   -0.029276
 ---------------------------------------------------------------------

 SCF Done:  E(RwB97XD) =  -78.5555606978     A.U. after    8 cycles

 Alpha  occ. eigenvalues --  -10.29046 -10.28776  -0.86371  -0.67257  -0.55962
 Alpha  occ. eigenvalues --   -0.50925  -0.43672  -0.35667
 Alpha virt. eigenvalues --    0.07949   0.14105   0.16492   0.17031   0.24080
 Alpha virt. eigenvalues --    0.37296   0.39350   0.39962   0.46429   0.48892
 Alpha virt. eigenvalues --    0.49394   0.59097   0.66582   0.69171   0.77256

 Mulliken charges:
               1
     1  C   -0.339420
     2  H    0.173988
     3  H    0.175065
     4  C   -0.346831
     5  H    0.168469
     6  H    0.168729
 Sum of Mulliken charges =   0.00000

 Dipole moment (field-independent basis, Debye):
    X=              0.0045    Y=              0.0208    Z=             -0.1160  Tot=              0.1180
 Quadrupole moment (field-independent basis, Debye-Ang):
   XX=            -12.2047   YY=            -12.2174   ZZ=            -15.6684
   XY=              0.0143   XZ=             -0.0008   YZ=             -0.0041

 Normal termination of Gaussian 16 at Wed Jan 11 16:52:56 2023.
