 Gaussian 16, Revision C.01,
 Gaussian 16:  ES64L-G16RevC.01  3-Jul-2019

 ----------------------------------------------------------------------
 # BLYP/STO-3G SCF=XQC TD=(singlets,nstates=2,root=1) FORCE nosym pop=f
 ull guess=read
 ----------------------------------------------------------------------

 ------------
 MD Step 1000
 ------------
 Symbolic Z-matrix:
 Charge =  0 Multiplicity = 1

                          Input orientation:
 ---------------------------------------------------------------------
 Center     Atomic      Atomic             Coordinates (Angstroms)
 Number     Number       Type             X           Y           Z
 ---------------------------------------------------------------------
      1          3           0        2.033438    1.832955    2.278508
      2          1           0        0.462106    1.842808    1.772052
 ---------------------------------------------------------------------

 SCF Done:  E(RB-LYP) =  -7.94279532377     A.U. after    1 cycles

 Excitation energies and oscillator strengths:

 Excited state symmetry could not be determined.
 Excited State   1:      Singlet-?Sym    3.3182 eV  373.65 nm  f=0.0442  <S**2>=0.000
       2 ->  3         0.70530
 This state for optimization and/or second-order correction.
 Total Energy, E(TD-HF/TD-DFT) =  -7.82085279786
 Copying the excited state density for this state as the 1-particle RhoCI density.

 Excited state symmetry could not be determined.
 Excited State   2:      Singlet-?Sym    5.0178 eV  247.09 nm  f=0.2373  <S**2>=0.000
       2 ->  4         0.69380
       2 ->  5        -0.13968

 Alpha  occ. eigenvalues --   -1.77365  -0.13626
 Alpha virt. eigenvalues --   -0.02729   0.03337   0.03337   0.32016

 Mulliken charges:
               1
     1  Li  -0.005046
     2  H    0.005046
 Sum of Mulliken charges =   0.00000

 Dipole moment (field-independent basis, Debye):
    X=              4.4764    Y=             -0.0281    Z=              1.4428  Tot=              4.7032
 Quadrupole moment (field-independent basis, Debye-Ang):
   XX=              9.8145   YY=             -5.5223   ZZ=              0.8468
   XY=              8.1666   XZ=             12.1757   YZ=              2.5866

 Normal termination of Gaussian 16 at Thu Dec 29 05:02:58 2022.
