 Gaussian 16, Revision C.01,
 Gaussian 16:  ES64L-G16RevC.01  3-Jul-2019

 -------------------------------------------------------
 # WB97XD/6-311G SCF=XQC FORCE nosym pop=full guess=read
 -------------------------------------------------------

 -----------
 MD Step 999
 -----------
 Symbolic Z-matrix:
 Charge =  0 Multiplicity = 1

                          Input orientation:
 ---------------------------------------------------------------------
 Center     Atomic      Atomic             Coordinates (Angstroms)
 Number     Number       Type             X           Y           Z
 ---------------------------------------------------------------------
      1          6           0       -0.335753   -0.580836    0.009179
      2          1           0        0.221453   -1.528288   -0.033003
      3          1           0       -1.424052   -0.588735   -0.035120
      4          6           0        0.332737    0.576774    0.006595
      5          1           0       -0.157583    1.566773   -0.038260
      6          1           0        1.441761    0.644292   -0.035921
 ---------------------------------------------------------------------

 SCF Done:  E(RwB97XD) =  -78.5554412394     A.U. after    8 cycles

 Alpha  occ. eigenvalues --  -10.29030 -10.28850  -0.86403  -0.67174  -0.55895
 Alpha  occ. eigenvalues --   -0.50957  -0.43584  -0.35716
 Alpha virt. eigenvalues --    0.07980   0.14075   0.16423   0.16990   0.24085
 Alpha virt. eigenvalues --    0.37380   0.39270   0.39926   0.46364   0.48824
 Alpha virt. eigenvalues --    0.49358   0.59113   0.66496   0.69004   0.77260

 Mulliken charges:
               1
     1  C   -0.339165
     2  H    0.172821
     3  H    0.174683
     4  C   -0.345963
     5  H    0.169135
     6  H    0.168490
 Sum of Mulliken charges =  -0.00000

 Dipole moment (field-independent basis, Debye):
    X=              0.0058    Y=              0.0215    Z=             -0.1439  Tot=              0.1456
 Quadrupole moment (field-independent basis, Debye-Ang):
   XX=            -12.2106   YY=            -12.2278   ZZ=            -15.6691
   XY=              0.0133   XZ=              0.0014   YZ=             -0.0044

 Normal termination of Gaussian 16 at Wed Jan 11 18:43:45 2023.
