 Gaussian 16, Revision C.01,
 Gaussian 16:  ES64L-G16RevC.01  3-Jul-2019

 --------------------------------------------
 # WB97XD/STO-3G SCF=XQC FORCE nosym pop=full
 --------------------------------------------

 ------------
 MD Step 1000
 ------------
 Symbolic Z-matrix:
 Charge =  0 Multiplicity = 1

                          Input orientation:
 ---------------------------------------------------------------------
 Center     Atomic      Atomic             Coordinates (Angstroms)
 Number     Number       Type             X           Y           Z
 ---------------------------------------------------------------------
      1          6           0        2.740135    1.875258    2.083115
      2          1           0       -1.065076   -1.031556    2.487493
      3          1           0       -1.092727   -0.689900    1.544174
      4          6           0        1.539049    3.050566    2.059056
      5          1           0        1.741899    3.263317    3.167845
      6          1           0        1.559520    3.738724    1.251960
 ---------------------------------------------------------------------

 SCF Done:  E(RwB97XD) =  -77.2709608249     A.U. after   19 cycles

 Alpha  occ. eigenvalues --  -10.09175 -10.06274  -0.74516  -0.54634  -0.46513
 Alpha  occ. eigenvalues --   -0.41995  -0.28316  -0.22690
 Alpha virt. eigenvalues --    0.08351   0.11487   0.32550   0.40062   0.47127
 Alpha virt. eigenvalues --    0.63504

 Mulliken charges:
               1
     1  C    0.081678
     2  H   -0.000517
     3  H    0.000516
     4  C   -0.240797
     5  H    0.068950
     6  H    0.090170
 Sum of Mulliken charges =  -0.00000

 Dipole moment (field-independent basis, Debye):
    X=              0.2086    Y=              0.7155    Z=             -0.0170  Tot=              0.7455
 Quadrupole moment (field-independent basis, Debye-Ang):
   XX=            -13.9511   YY=            -10.1037   ZZ=            -11.0807
   XY=              2.6432   XZ=              0.3285   YZ=              1.1259

 Normal termination of Gaussian 16 at Tue Jan  3 13:29:38 2023.
