 Gaussian 16, Revision C.01,
 Gaussian 16:  ES64L-G16RevC.01  3-Jul-2019

 -------------------------------------------------------
 # WB97XD/6-311G SCF=XQC FORCE nosym pop=full guess=read
 -------------------------------------------------------

 -----------
 MD Step 999
 -----------
 Symbolic Z-matrix:
 Charge =  0 Multiplicity = 1

                          Input orientation:
 ---------------------------------------------------------------------
 Center     Atomic      Atomic             Coordinates (Angstroms)
 Number     Number       Type             X           Y           Z
 ---------------------------------------------------------------------
      1          6           0       -0.334386   -0.578710    0.004141
      2          1           0        0.203564   -1.534829   -0.011333
      3          1           0       -1.419795   -0.602127   -0.011789
      4          6           0        0.333287    0.577531    0.003648
      5          1           0       -0.170792    1.560184   -0.012721
      6          1           0        1.444622    0.635324   -0.012476
 ---------------------------------------------------------------------

 SCF Done:  E(RwB97XD) =  -78.5563399246     A.U. after    8 cycles

 Alpha  occ. eigenvalues --  -10.29022 -10.28736  -0.86424  -0.67222  -0.55885
 Alpha  occ. eigenvalues --   -0.51045  -0.43613  -0.35735
 Alpha virt. eigenvalues --    0.08060   0.14119   0.16455   0.17010   0.24102
 Alpha virt. eigenvalues --    0.37794   0.39245   0.39684   0.46360   0.48812
 Alpha virt. eigenvalues --    0.49348   0.59138   0.66535   0.69112   0.77284

 Mulliken charges:
               1
     1  C   -0.340146
     2  H    0.171986
     3  H    0.173753
     4  C   -0.343808
     5  H    0.169351
     6  H    0.168864
 Sum of Mulliken charges =  -0.00000

 Dipole moment (field-independent basis, Debye):
    X=             -0.0053    Y=              0.0081    Z=             -0.0528  Tot=              0.0537
 Quadrupole moment (field-independent basis, Debye-Ang):
   XX=            -12.2068   YY=            -12.2038   ZZ=            -15.6616
   XY=              0.0288   XZ=             -0.0003   YZ=             -0.0016

 Normal termination of Gaussian 16 at Wed Jan 11 16:33:00 2023.
