 Gaussian 16, Revision C.01,
 Gaussian 16:  ES64L-G16RevC.01  3-Jul-2019

 -------------------------------------------------------
 # WB97XD/6-311G SCF=XQC FORCE nosym pop=full guess=read
 -------------------------------------------------------

 -----------
 MD Step 999
 -----------
 Symbolic Z-matrix:
 Charge =  0 Multiplicity = 1

                          Input orientation:
 ---------------------------------------------------------------------
 Center     Atomic      Atomic             Coordinates (Angstroms)
 Number     Number       Type             X           Y           Z
 ---------------------------------------------------------------------
      1          6           0       -0.336681   -0.582143    0.004221
      2          1           0        0.225557   -1.526081   -0.009415
      3          1           0       -1.421328   -0.578548   -0.010211
      4          6           0        0.332156    0.575682    0.002826
      5          1           0       -0.152807    1.566301   -0.012425
      6          1           0        1.442845    0.655680   -0.011554
 ---------------------------------------------------------------------

 SCF Done:  E(RwB97XD) =  -78.5555210973     A.U. after    8 cycles

 Alpha  occ. eigenvalues --  -10.29000 -10.28808  -0.86406  -0.67224  -0.55963
 Alpha  occ. eigenvalues --   -0.50942  -0.43608  -0.35705
 Alpha virt. eigenvalues --    0.08021   0.14095   0.16468   0.17002   0.24077
 Alpha virt. eigenvalues --    0.37166   0.39342   0.40115   0.46364   0.48870
 Alpha virt. eigenvalues --    0.49365   0.59115   0.66559   0.69146   0.77283

 Mulliken charges:
               1
     1  C   -0.339094
     2  H    0.173815
     3  H    0.175601
     4  C   -0.347365
     5  H    0.168856
     6  H    0.168185
 Sum of Mulliken charges =   0.00000

 Dipole moment (field-independent basis, Debye):
    X=              0.0042    Y=              0.0294    Z=             -0.0479  Tot=              0.0563
 Quadrupole moment (field-independent basis, Debye-Ang):
   XX=            -12.2026   YY=            -12.2165   ZZ=            -15.6705
   XY=              0.0163   XZ=             -0.0002   YZ=             -0.0031

 Normal termination of Gaussian 16 at Wed Jan 11 18:47:30 2023.
