 Gaussian 16, Revision C.01,
 Gaussian 16:  ES64L-G16RevC.01  3-Jul-2019

 -------------------------------------------------------
 # WB97XD/6-311G SCF=XQC FORCE nosym pop=full guess=read
 -------------------------------------------------------

 -----------
 MD Step 999
 -----------
 Symbolic Z-matrix:
 Charge =  0 Multiplicity = 1

                          Input orientation:
 ---------------------------------------------------------------------
 Center     Atomic      Atomic             Coordinates (Angstroms)
 Number     Number       Type             X           Y           Z
 ---------------------------------------------------------------------
      1          6           0       -0.335642   -0.580979    0.007940
      2          1           0        0.214466   -1.529197   -0.027323
      3          1           0       -1.419340   -0.586519   -0.027538
      4          6           0        0.333370    0.576778    0.005902
      5          1           0       -0.163509    1.566869   -0.029885
      6          1           0        1.446178    0.649635   -0.029464
 ---------------------------------------------------------------------

 SCF Done:  E(RwB97XD) =  -78.5555064612     A.U. after    8 cycles

 Alpha  occ. eigenvalues --  -10.29096 -10.28779  -0.86393  -0.67191  -0.55900
 Alpha  occ. eigenvalues --   -0.50973  -0.43591  -0.35708
 Alpha virt. eigenvalues --    0.07987   0.14085   0.16434   0.16989   0.24076
 Alpha virt. eigenvalues --    0.37450   0.39248   0.39896   0.46330   0.48822
 Alpha virt. eigenvalues --    0.49363   0.59108   0.66508   0.69046   0.77203

 Mulliken charges:
               1
     1  C   -0.339357
     2  H    0.173302
     3  H    0.174927
     4  C   -0.345854
     5  H    0.168504
     6  H    0.168478
 Sum of Mulliken charges =  -0.00000

 Dipole moment (field-independent basis, Debye):
    X=             -0.0008    Y=              0.0175    Z=             -0.1175  Tot=              0.1188
 Quadrupole moment (field-independent basis, Debye-Ang):
   XX=            -12.2086   YY=            -12.2197   ZZ=            -15.6710
   XY=              0.0208   XZ=             -0.0007   YZ=             -0.0019

 Normal termination of Gaussian 16 at Wed Jan 11 19:43:48 2023.
