 Gaussian 16, Revision C.01,
 Gaussian 16:  ES64L-G16RevC.01  3-Jul-2019

 -----------------------------------------------------------
 # FORCE TD=(singlets,nstates=5) BLYP/STO-3G nosymm pop=full
 -----------------------------------------------------------

 -------
 TitleMe
 -------
 Symbolic Z-matrix:
 Charge =  0 Multiplicity = 1

                          Input orientation:
 ---------------------------------------------------------------------
 Center     Atomic      Atomic             Coordinates (Angstroms)
 Number     Number       Type             X           Y           Z
 ---------------------------------------------------------------------
      1          6           0       -0.708352    0.000037   -0.000509
      2          6           0       -0.016420   -1.222055   -0.002246
      3          6           0        1.380591   -1.222220   -0.007971
      4          6           0        2.099146   -0.000011   -0.003900
      5          6           0        1.380598    1.222185   -0.007940
      6          6           0       -0.016435    1.222095   -0.002166
      7          1           0       -0.560253   -2.171893   -0.001006
      8          1           0        1.911251   -2.180061   -0.007176
      9          1           0        1.911184    2.180076   -0.007214
     10          1           0       -0.560206    2.171966   -0.000787
     11          7           0        3.477700   -0.000030    0.061953
     12          1           0        3.983821   -0.893378   -0.159588
     13          1           0        3.983803    0.893475   -0.158983
     14          7           0       -2.162827   -0.000001    0.001447
     15          8           0       -2.784585    1.065079    0.001608
     16          8           0       -2.784592   -1.065117    0.001810
 ---------------------------------------------------------------------

 SCF Done:  E(RB-LYP) =  -485.480008040     A.U. after   17 cycles

 Excitation energies and oscillator strengths:

 Excited state symmetry could not be determined.
 Excited State   1:      Singlet-?Sym    2.3465 eV  528.39 nm  f=0.0000  <S**2>=0.000
      36 -> 37         0.70540
 This state for optimization and/or second-order correction.
 Total Energy, E(TD-HF/TD-DFT) =  -485.393777015
 Copying the excited state density for this state as the 1-particle RhoCI density.

 Excited state symmetry could not be determined.
 Excited State   2:      Singlet-?Sym    2.8399 eV  436.58 nm  f=0.0001  <S**2>=0.000
      36 -> 38         0.70694

 Excited state symmetry could not be determined.
 Excited State   3:      Singlet-?Sym    3.2688 eV  379.29 nm  f=0.0001  <S**2>=0.000
      35 -> 37         0.70577

 Excited state symmetry could not be determined.
 Excited State   4:      Singlet-?Sym    3.7386 eV  331.63 nm  f=0.0000  <S**2>=0.000
      35 -> 38         0.70705

 Excited state symmetry could not be determined.
 Excited State   5:      Singlet-?Sym    4.0182 eV  308.56 nm  f=0.0000  <S**2>=0.000
      34 -> 38         0.70345

 Alpha  occ. eigenvalues --  -18.50346 -18.50340 -14.06696 -13.88553  -9.81347
 Alpha  occ. eigenvalues --   -9.77767  -9.75846  -9.75842  -9.74926  -9.74921
 Alpha  occ. eigenvalues --   -1.03204  -0.84472  -0.80427  -0.72628  -0.64664
 Alpha  occ. eigenvalues --   -0.63391  -0.55205  -0.51746  -0.46892  -0.43033
 Alpha  occ. eigenvalues --   -0.42884  -0.37240  -0.35807  -0.35209  -0.34881
 Alpha  occ. eigenvalues --   -0.33352  -0.29895  -0.29253  -0.28644  -0.25863
 Alpha  occ. eigenvalues --   -0.21173  -0.16812  -0.10828  -0.09426  -0.08404
 Alpha  occ. eigenvalues --   -0.05085
 Alpha virt. eigenvalues --    0.02826   0.05330   0.09916   0.20664   0.23752
 Alpha virt. eigenvalues --    0.24538   0.28707   0.31920   0.35345   0.37409
 Alpha virt. eigenvalues --    0.38978   0.40468   0.43820   0.45521   0.51082

 Mulliken charges:
               1
     1  C    0.043448
     2  C   -0.074267
     3  C   -0.094416
     4  C    0.087317
     5  C   -0.094419
     6  C   -0.074269
     7  H    0.098592
     8  H    0.075302
     9  H    0.075296
    10  H    0.098593
    11  N   -0.345757
    12  H    0.207607
    13  H    0.207606
    14  N    0.096483
    15  O   -0.153558
    16  O   -0.153559
 Sum of Mulliken charges =  -0.00000

 Dipole moment (field-independent basis, Debye):
    X=              5.9093    Y=              0.0003    Z=             -0.7056  Tot=              5.9513
 Quadrupole moment (field-independent basis, Debye-Ang):
   XX=            -47.5602   YY=            -49.2886   ZZ=            -53.3487
   XY=              0.0005   XZ=             -2.8113   YZ=              0.0014

 Normal termination of Gaussian 16 at Mon Dec 26 21:11:41 2022.
