 Gaussian 16, Revision C.01,
 Gaussian 16:  ES64L-G16RevC.01  3-Jul-2019

 -------------------------------------------------------
 # WB97XD/6-311G SCF=XQC FORCE nosym pop=full guess=read
 -------------------------------------------------------

 ------------
 MD Step 1000
 ------------
 Symbolic Z-matrix:
 Charge =  0 Multiplicity = 1

                          Input orientation:
 ---------------------------------------------------------------------
 Center     Atomic      Atomic             Coordinates (Angstroms)
 Number     Number       Type             X           Y           Z
 ---------------------------------------------------------------------
      1          6           0       -0.335224   -0.580494    0.004166
      2          1           0        0.208035   -1.538233   -0.011558
      3          1           0       -1.426503   -0.599280   -0.012593
      4          6           0        0.334236    0.579179    0.003471
      5          1           0       -0.172074    1.560618   -0.013545
      6          1           0        1.443133    0.633365   -0.012490
 ---------------------------------------------------------------------

 SCF Done:  E(RwB97XD) =  -78.5562044965     A.U. after    8 cycles

 Alpha  occ. eigenvalues --  -10.29054 -10.28884  -0.86328  -0.67169  -0.55861
 Alpha  occ. eigenvalues --   -0.50909  -0.43675  -0.35671
 Alpha virt. eigenvalues --    0.07978   0.14075   0.16435   0.16980   0.24067
 Alpha virt. eigenvalues --    0.37593   0.39288   0.39583   0.46412   0.48652
 Alpha virt. eigenvalues --    0.49383   0.59085   0.66538   0.68957   0.77266

 Mulliken charges:
               1
     1  C   -0.340429
     2  H    0.171992
     3  H    0.173484
     4  C   -0.344158
     5  H    0.169717
     6  H    0.169394
 Sum of Mulliken charges =   0.00000

 Dipole moment (field-independent basis, Debye):
    X=             -0.0007    Y=              0.0117    Z=             -0.0542  Tot=              0.0555
 Quadrupole moment (field-independent basis, Debye-Ang):
   XX=            -12.2010   YY=            -12.2162   ZZ=            -15.6847
   XY=              0.0096   XZ=              0.0010   YZ=             -0.0018

 Normal termination of Gaussian 16 at Wed Jan 11 18:40:01 2023.
