 Gaussian 16, Revision C.01,
 Gaussian 16:  ES64L-G16RevC.01  3-Jul-2019

 -------------------------------------------------------
 # WB97XD/6-311G SCF=XQC FORCE nosym pop=full guess=read
 -------------------------------------------------------

 ------------
 MD Step 1000
 ------------
 Symbolic Z-matrix:
 Charge =  0 Multiplicity = 1

                          Input orientation:
 ---------------------------------------------------------------------
 Center     Atomic      Atomic             Coordinates (Angstroms)
 Number     Number       Type             X           Y           Z
 ---------------------------------------------------------------------
      1          6           0       -0.336947   -0.582743    0.006985
      2          1           0        0.226550   -1.522600   -0.022407
      3          1           0       -1.420801   -0.581325   -0.023982
      4          6           0        0.332609    0.576923    0.005171
      5          1           0       -0.150543    1.567539   -0.026747
      6          1           0        1.443035    0.652286   -0.025135
 ---------------------------------------------------------------------

 SCF Done:  E(RwB97XD) =  -78.5553999999     A.U. after    8 cycles

 Alpha  occ. eigenvalues --  -10.29019 -10.28805  -0.86374  -0.67261  -0.55974
 Alpha  occ. eigenvalues --   -0.50915  -0.43656  -0.35670
 Alpha virt. eigenvalues --    0.07959   0.14098   0.16495   0.17023   0.24076
 Alpha virt. eigenvalues --    0.37158   0.39360   0.40086   0.46421   0.48897
 Alpha virt. eigenvalues --    0.49391   0.59097   0.66585   0.69169   0.77276

 Mulliken charges:
               1
     1  C   -0.339229
     2  H    0.173886
     3  H    0.175744
     4  C   -0.347570
     5  H    0.169149
     6  H    0.168020
 Sum of Mulliken charges =   0.00000

 Dipole moment (field-independent basis, Debye):
    X=              0.0056    Y=              0.0274    Z=             -0.1018  Tot=              0.1056
 Quadrupole moment (field-independent basis, Debye-Ang):
   XX=            -12.2035   YY=            -12.2181   ZZ=            -15.6700
   XY=              0.0145   XZ=              0.0004   YZ=             -0.0042

 Normal termination of Gaussian 16 at Wed Jan 11 18:30:37 2023.
