 Gaussian 16, Revision C.01,
 Gaussian 16:  ES64L-G16RevC.01  3-Jul-2019

 -------------------------------------------------------
 # WB97XD/6-311G SCF=XQC FORCE nosym pop=full guess=read
 -------------------------------------------------------

 -----------
 MD Step 999
 -----------
 Symbolic Z-matrix:
 Charge =  0 Multiplicity = 1

                          Input orientation:
 ---------------------------------------------------------------------
 Center     Atomic      Atomic             Coordinates (Angstroms)
 Number     Number       Type             X           Y           Z
 ---------------------------------------------------------------------
      1          6           0       -0.335814   -0.580325    0.004443
      2          1           0        0.216542   -1.531858   -0.010233
      3          1           0       -1.420003   -0.594675   -0.010557
      4          6           0        0.333317    0.578054    0.003884
      5          1           0       -0.161148    1.565540   -0.012727
      6          1           0        1.447758    0.641450   -0.012311
 ---------------------------------------------------------------------

 SCF Done:  E(RwB97XD) =  -78.5558675556     A.U. after    8 cycles

 Alpha  occ. eigenvalues --  -10.29078 -10.28812  -0.86366  -0.67194  -0.55886
 Alpha  occ. eigenvalues --   -0.50958  -0.43621  -0.35695
 Alpha virt. eigenvalues --    0.08003   0.14083   0.16443   0.16980   0.24069
 Alpha virt. eigenvalues --    0.37503   0.39252   0.39803   0.46348   0.48740
 Alpha virt. eigenvalues --    0.49369   0.59099   0.66530   0.69020   0.77230

 Mulliken charges:
               1
     1  C   -0.339763
     2  H    0.172514
     3  H    0.174878
     4  C   -0.345262
     5  H    0.169394
     6  H    0.168239
 Sum of Mulliken charges =  -0.00000

 Dipole moment (field-independent basis, Debye):
    X=             -0.0032    Y=              0.0169    Z=             -0.0517  Tot=              0.0545
 Quadrupole moment (field-independent basis, Debye-Ang):
   XX=            -12.2037   YY=            -12.2126   ZZ=            -15.6777
   XY=              0.0209   XZ=             -0.0016   YZ=             -0.0035

 Normal termination of Gaussian 16 at Wed Jan 11 18:54:55 2023.
