 Gaussian 16, Revision C.01,
 Gaussian 16:  ES64L-G16RevC.01  3-Jul-2019

 -------------------------------------------------------
 # WB97XD/6-311G SCF=XQC FORCE nosym pop=full guess=read
 -------------------------------------------------------

 ------------
 MD Step 1000
 ------------
 Symbolic Z-matrix:
 Charge =  0 Multiplicity = 1

                          Input orientation:
 ---------------------------------------------------------------------
 Center     Atomic      Atomic             Coordinates (Angstroms)
 Number     Number       Type             X           Y           Z
 ---------------------------------------------------------------------
      1          6           0       -0.336701   -0.582802    0.007437
      2          1           0        0.216692   -1.530383   -0.028815
      3          1           0       -1.422036   -0.582832   -0.029379
      4          6           0        0.333475    0.577378    0.006012
      5          1           0       -0.162840    1.564478   -0.032839
      6          1           0        1.443587    0.650324   -0.032262
 ---------------------------------------------------------------------

 SCF Done:  E(RwB97XD) =  -78.5554768241     A.U. after    8 cycles

 Alpha  occ. eigenvalues --  -10.29073 -10.28841  -0.86343  -0.67215  -0.55919
 Alpha  occ. eigenvalues --   -0.50898  -0.43662  -0.35659
 Alpha virt. eigenvalues --    0.07928   0.14080   0.16461   0.17002   0.24068
 Alpha virt. eigenvalues --    0.37301   0.39315   0.39891   0.46419   0.48799
 Alpha virt. eigenvalues --    0.49395   0.59081   0.66551   0.69050   0.77235

 Mulliken charges:
               1
     1  C   -0.339562
     2  H    0.173523
     3  H    0.174907
     4  C   -0.346412
     5  H    0.168793
     6  H    0.168751
 Sum of Mulliken charges =  -0.00000

 Dipole moment (field-independent basis, Debye):
    X=              0.0015    Y=              0.0219    Z=             -0.1245  Tot=              0.1265
 Quadrupole moment (field-independent basis, Debye-Ang):
   XX=            -12.2050   YY=            -12.2230   ZZ=            -15.6773
   XY=              0.0105   XZ=             -0.0019   YZ=             -0.0052

 Normal termination of Gaussian 16 at Wed Jan 11 18:45:48 2023.
