 Gaussian 16, Revision C.01,
 Gaussian 16:  ES64L-G16RevC.01  3-Jul-2019

 -------------------------------------------------------
 # WB97XD/6-311G SCF=XQC FORCE nosym pop=full guess=read
 -------------------------------------------------------

 ------------
 MD Step 1000
 ------------
 Symbolic Z-matrix:
 Charge =  0 Multiplicity = 1

                          Input orientation:
 ---------------------------------------------------------------------
 Center     Atomic      Atomic             Coordinates (Angstroms)
 Number     Number       Type             X           Y           Z
 ---------------------------------------------------------------------
      1          6           0       -0.336462   -0.582790    0.008082
      2          1           0        0.217399   -1.526558   -0.029873
      3          1           0       -1.420192   -0.580165   -0.030514
      4          6           0        0.333067    0.576779    0.006115
      5          1           0       -0.162132    1.567165   -0.034014
      6          1           0        1.447059    0.652861   -0.033095
 ---------------------------------------------------------------------

 SCF Done:  E(RwB97XD) =  -78.5552204469     A.U. after    8 cycles

 Alpha  occ. eigenvalues --  -10.29121 -10.28794  -0.86366  -0.67189  -0.55934
 Alpha  occ. eigenvalues --   -0.50904  -0.43625  -0.35677
 Alpha virt. eigenvalues --    0.07943   0.14071   0.16444   0.16996   0.24063
 Alpha virt. eigenvalues --    0.37277   0.39302   0.39934   0.46358   0.48833
 Alpha virt. eigenvalues --    0.49383   0.59088   0.66522   0.69062   0.77177

 Mulliken charges:
               1
     1  C   -0.339332
     2  H    0.174062
     3  H    0.175264
     4  C   -0.346711
     5  H    0.168477
     6  H    0.168240
 Sum of Mulliken charges =   0.00000

 Dipole moment (field-independent basis, Debye):
    X=              0.0004    Y=              0.0206    Z=             -0.1292  Tot=              0.1309
 Quadrupole moment (field-independent basis, Debye-Ang):
   XX=            -12.2084   YY=            -12.2251   ZZ=            -15.6764
   XY=              0.0089   XZ=             -0.0011   YZ=             -0.0045

 Normal termination of Gaussian 16 at Wed Jan 11 19:41:03 2023.
