 Gaussian 16, Revision C.01,
 Gaussian 16:  ES64L-G16RevC.01  3-Jul-2019

 -------------------------------------------------------
 # WB97XD/6-311G SCF=XQC FORCE nosym pop=full guess=read
 -------------------------------------------------------

 -----------
 MD Step 999
 -----------
 Symbolic Z-matrix:
 Charge =  0 Multiplicity = 1

                          Input orientation:
 ---------------------------------------------------------------------
 Center     Atomic      Atomic             Coordinates (Angstroms)
 Number     Number       Type             X           Y           Z
 ---------------------------------------------------------------------
      1          6           0       -0.337333   -0.584119    0.009199
      2          1           0        0.228995   -1.518239   -0.032680
      3          1           0       -1.420455   -0.568422   -0.033283
      4          6           0        0.331803    0.574373    0.005476
      5          1           0       -0.151040    1.575228   -0.036638
      6          1           0        1.444924    0.664103   -0.035716
 ---------------------------------------------------------------------

 SCF Done:  E(RwB97XD) =  -78.5544190766     A.U. after    8 cycles

 Alpha  occ. eigenvalues --  -10.29129 -10.28789  -0.86408  -0.67172  -0.55981
 Alpha  occ. eigenvalues --   -0.50902  -0.43536  -0.35704
 Alpha virt. eigenvalues --    0.07958   0.14059   0.16427   0.16977   0.24053
 Alpha virt. eigenvalues --    0.36942   0.39303   0.40287   0.46269   0.48931
 Alpha virt. eigenvalues --    0.49367   0.59097   0.66496   0.69088   0.77140

 Mulliken charges:
               1
     1  C   -0.338633
     2  H    0.175345
     3  H    0.176526
     4  C   -0.348919
     5  H    0.167809
     6  H    0.167873
 Sum of Mulliken charges =   0.00000

 Dipole moment (field-independent basis, Debye):
    X=              0.0091    Y=              0.0291    Z=             -0.1392  Tot=              0.1425
 Quadrupole moment (field-independent basis, Debye-Ang):
   XX=            -12.2128   YY=            -12.2328   ZZ=            -15.6748
   XY=              0.0095   XZ=              0.0002   YZ=             -0.0020

 Normal termination of Gaussian 16 at Wed Jan 11 19:43:41 2023.
