 Gaussian 16, Revision C.01,
 Gaussian 16:  ES64L-G16RevC.01  3-Jul-2019

 -------------------------------------------------------
 # WB97XD/6-311G SCF=XQC FORCE nosym pop=full guess=read
 -------------------------------------------------------

 ------------
 MD Step 1000
 ------------
 Symbolic Z-matrix:
 Charge =  0 Multiplicity = 1

                          Input orientation:
 ---------------------------------------------------------------------
 Center     Atomic      Atomic             Coordinates (Angstroms)
 Number     Number       Type             X           Y           Z
 ---------------------------------------------------------------------
      1          6           0       -0.337083   -0.582290    0.001061
      2          1           0        0.234909   -1.523546    0.008839
      3          1           0       -1.426302   -0.584964    0.008130
      4          6           0        0.332793    0.577913    0.000650
      5          1           0       -0.143451    1.564748    0.006274
      6          1           0        1.436500    0.646447    0.006899
 ---------------------------------------------------------------------

 SCF Done:  E(RwB97XD) =  -78.5557752102     A.U. after    8 cycles

 Alpha  occ. eigenvalues --  -10.28938 -10.28839  -0.86358  -0.67297  -0.55988
 Alpha  occ. eigenvalues --   -0.50881  -0.43717  -0.35652
 Alpha virt. eigenvalues --    0.07975   0.14103   0.16526   0.17040   0.24087
 Alpha virt. eigenvalues --    0.37059   0.39447   0.40093   0.46518   0.48870
 Alpha virt. eigenvalues --    0.49402   0.59098   0.66621   0.69216   0.77422

 Mulliken charges:
               1
     1  C   -0.339420
     2  H    0.173058
     3  H    0.175470
     4  C   -0.347689
     5  H    0.170159
     6  H    0.168422
 Sum of Mulliken charges =  -0.00000

 Dipole moment (field-independent basis, Debye):
    X=              0.0124    Y=              0.0342    Z=              0.0223  Tot=              0.0427
 Quadrupole moment (field-independent basis, Debye-Ang):
   XX=            -12.1921   YY=            -12.2175   ZZ=            -15.6713
   XY=              0.0107   XZ=             -0.0004   YZ=             -0.0036

 Normal termination of Gaussian 16 at Wed Jan 11 18:35:51 2023.
