 Gaussian 16, Revision C.01,
 Gaussian 16:  ES64L-G16RevC.01  3-Jul-2019

 -------------------------------------------------------
 # WB97XD/6-311G SCF=XQC FORCE nosym pop=full guess=read
 -------------------------------------------------------

 ------------
 MD Step 1000
 ------------
 Symbolic Z-matrix:
 Charge =  0 Multiplicity = 1

                          Input orientation:
 ---------------------------------------------------------------------
 Center     Atomic      Atomic             Coordinates (Angstroms)
 Number     Number       Type             X           Y           Z
 ---------------------------------------------------------------------
      1          6           0       -0.336627   -0.582950    0.005356
      2          1           0        0.222928   -1.523796   -0.015043
      3          1           0       -1.426399   -0.585816   -0.016209
      4          6           0        0.333573    0.577861    0.003562
      5          1           0       -0.159417    1.568422   -0.017549
      6          1           0        1.440296    0.642870   -0.016449
 ---------------------------------------------------------------------

 SCF Done:  E(RwB97XD) =  -78.5557796897     A.U. after    8 cycles

 Alpha  occ. eigenvalues --  -10.29038 -10.28846  -0.86335  -0.67206  -0.55967
 Alpha  occ. eigenvalues --   -0.50837  -0.43717  -0.35645
 Alpha virt. eigenvalues --    0.07949   0.14078   0.16479   0.17019   0.24063
 Alpha virt. eigenvalues --    0.37212   0.39425   0.39831   0.46456   0.48788
 Alpha virt. eigenvalues --    0.49403   0.59081   0.66585   0.69112   0.77266

 Mulliken charges:
               1
     1  C   -0.339694
     2  H    0.173569
     3  H    0.174958
     4  C   -0.346622
     5  H    0.169020
     6  H    0.168771
 Sum of Mulliken charges =   0.00000

 Dipole moment (field-independent basis, Debye):
    X=              0.0102    Y=              0.0195    Z=             -0.0691  Tot=              0.0725
 Quadrupole moment (field-independent basis, Debye-Ang):
   XX=            -12.1933   YY=            -12.2279   ZZ=            -15.6818
   XY=             -0.0011   XZ=              0.0013   YZ=             -0.0013

 Normal termination of Gaussian 16 at Wed Jan 11 18:50:06 2023.
