 Gaussian 16, Revision C.01,
 Gaussian 16:  ES64L-G16RevC.01  3-Jul-2019

 -------------------------------------------------------
 # WB97XD/6-311G SCF=XQC FORCE nosym pop=full guess=read
 -------------------------------------------------------

 ------------
 MD Step 1000
 ------------
 Symbolic Z-matrix:
 Charge =  0 Multiplicity = 1

                          Input orientation:
 ---------------------------------------------------------------------
 Center     Atomic      Atomic             Coordinates (Angstroms)
 Number     Number       Type             X           Y           Z
 ---------------------------------------------------------------------
      1          6           0       -0.336598   -0.582979    0.010462
      2          1           0        0.220253   -1.523719   -0.039399
      3          1           0       -1.420310   -0.580534   -0.040774
      4          6           0        0.333296    0.577038    0.007454
      5          1           0       -0.157666    1.569093   -0.044059
      6          1           0        1.444044    0.652934   -0.042269
 ---------------------------------------------------------------------

 SCF Done:  E(RwB97XD) =  -78.5549965726     A.U. after    8 cycles

 Alpha  occ. eigenvalues --  -10.29103 -10.28805  -0.86365  -0.67224  -0.55934
 Alpha  occ. eigenvalues --   -0.50915  -0.43628  -0.35667
 Alpha virt. eigenvalues --    0.07901   0.14079   0.16459   0.17009   0.24072
 Alpha virt. eigenvalues --    0.37240   0.39293   0.40013   0.46395   0.48890
 Alpha virt. eigenvalues --    0.49393   0.59085   0.66530   0.69071   0.77198

 Mulliken charges:
               1
     1  C   -0.339132
     2  H    0.174039
     3  H    0.175385
     4  C   -0.347185
     5  H    0.168543
     6  H    0.168350
 Sum of Mulliken charges =   0.00000

 Dipole moment (field-independent basis, Debye):
    X=              0.0049    Y=              0.0222    Z=             -0.1678  Tot=              0.1693
 Quadrupole moment (field-independent basis, Debye-Ang):
   XX=            -12.2123   YY=            -12.2281   ZZ=            -15.6706
   XY=              0.0124   XZ=              0.0009   YZ=             -0.0034

 Normal termination of Gaussian 16 at Wed Jan 11 19:59:41 2023.
