 Gaussian 16, Revision C.01,
 Gaussian 16:  ES64L-G16RevC.01  3-Jul-2019

 -------------------------------------------------------
 # WB97XD/6-311G SCF=XQC FORCE nosym pop=full guess=read
 -------------------------------------------------------

 ------------
 MD Step 1000
 ------------
 Symbolic Z-matrix:
 Charge =  0 Multiplicity = 1

                          Input orientation:
 ---------------------------------------------------------------------
 Center     Atomic      Atomic             Coordinates (Angstroms)
 Number     Number       Type             X           Y           Z
 ---------------------------------------------------------------------
      1          6           0       -0.335925   -0.581512    0.008241
      2          1           0        0.214994   -1.530552   -0.029198
      3          1           0       -1.420611   -0.586092   -0.029418
      4          6           0        0.333959    0.577870    0.006184
      5          1           0       -0.164296    1.563094   -0.031515
      6          1           0        1.444017    0.647644   -0.031072
 ---------------------------------------------------------------------

 SCF Done:  E(RwB97XD) =  -78.5556451054     A.U. after    8 cycles

 Alpha  occ. eigenvalues --  -10.29054 -10.28815  -0.86362  -0.67221  -0.55922
 Alpha  occ. eigenvalues --   -0.50922  -0.43664  -0.35672
 Alpha virt. eigenvalues --    0.07947   0.14089   0.16466   0.17014   0.24078
 Alpha virt. eigenvalues --    0.37405   0.39319   0.39834   0.46425   0.48820
 Alpha virt. eigenvalues --    0.49388   0.59094   0.66553   0.69081   0.77256

 Mulliken charges:
               1
     1  C   -0.339607
     2  H    0.173106
     3  H    0.174689
     4  C   -0.345918
     5  H    0.168911
     6  H    0.168819
 Sum of Mulliken charges =  -0.00000

 Dipole moment (field-independent basis, Debye):
    X=             -0.0001    Y=              0.0199    Z=             -0.1244  Tot=              0.1260
 Quadrupole moment (field-independent basis, Debye-Ang):
   XX=            -12.2036   YY=            -12.2228   ZZ=            -15.6723
   XY=              0.0129   XZ=             -0.0004   YZ=             -0.0015

 Normal termination of Gaussian 16 at Wed Jan 11 19:43:52 2023.
