 Gaussian 16, Revision C.01,
 Gaussian 16:  ES64L-G16RevC.01  3-Jul-2019

 -------------------------------------------------------
 # WB97XD/6-311G SCF=XQC FORCE nosym pop=full guess=read
 -------------------------------------------------------

 -----------
 MD Step 999
 -----------
 Symbolic Z-matrix:
 Charge =  0 Multiplicity = 1

                          Input orientation:
 ---------------------------------------------------------------------
 Center     Atomic      Atomic             Coordinates (Angstroms)
 Number     Number       Type             X           Y           Z
 ---------------------------------------------------------------------
      1          6           0       -0.336367   -0.581597    0.005239
      2          1           0        0.225943   -1.526555   -0.014094
      3          1           0       -1.422164   -0.584369   -0.015562
      4          6           0        0.332260    0.576623    0.004210
      5          1           0       -0.151525    1.567720   -0.018793
      6          1           0        1.443469    0.649251   -0.017361
 ---------------------------------------------------------------------

 SCF Done:  E(RwB97XD) =  -78.5555678518     A.U. after    8 cycles

 Alpha  occ. eigenvalues --  -10.29015 -10.28830  -0.86392  -0.67211  -0.55934
 Alpha  occ. eigenvalues --   -0.50944  -0.43606  -0.35702
 Alpha virt. eigenvalues --    0.08008   0.14087   0.16457   0.16993   0.24075
 Alpha virt. eigenvalues --    0.37238   0.39310   0.40046   0.46362   0.48828
 Alpha virt. eigenvalues --    0.49366   0.59109   0.66544   0.69087   0.77275

 Mulliken charges:
               1
     1  C   -0.339206
     2  H    0.173365
     3  H    0.175397
     4  C   -0.346841
     5  H    0.169284
     6  H    0.168001
 Sum of Mulliken charges =   0.00000

 Dipole moment (field-independent basis, Debye):
    X=              0.0045    Y=              0.0265    Z=             -0.0702  Tot=              0.0752
 Quadrupole moment (field-independent basis, Debye-Ang):
   XX=            -12.2059   YY=            -12.2155   ZZ=            -15.6729
   XY=              0.0158   XZ=             -0.0008   YZ=             -0.0060

 Normal termination of Gaussian 16 at Wed Jan 11 18:36:33 2023.
