 Gaussian 16, Revision C.01,
 Gaussian 16:  ES64L-G16RevC.01  3-Jul-2019

 -------------------------------------------------------
 # WB97XD/6-311G SCF=XQC FORCE nosym pop=full guess=read
 -------------------------------------------------------

 -----------
 MD Step 999
 -----------
 Symbolic Z-matrix:
 Charge =  0 Multiplicity = 1

                          Input orientation:
 ---------------------------------------------------------------------
 Center     Atomic      Atomic             Coordinates (Angstroms)
 Number     Number       Type             X           Y           Z
 ---------------------------------------------------------------------
      1          6           0       -0.337730   -0.583440    0.005491
      2          1           0        0.233021   -1.524783   -0.017498
      3          1           0       -1.424487   -0.576120   -0.018226
      4          6           0        0.331872    0.575859    0.003797
      5          1           0       -0.145142    1.566955   -0.021465
      6          1           0        1.439367    0.657239   -0.020541
 ---------------------------------------------------------------------

 SCF Done:  E(RwB97XD) =  -78.5552329624     A.U. after    8 cycles

 Alpha  occ. eigenvalues --  -10.28972 -10.28872  -0.86375  -0.67256  -0.55963
 Alpha  occ. eigenvalues --   -0.50903  -0.43627  -0.35677
 Alpha virt. eigenvalues --    0.07974   0.14086   0.16483   0.17001   0.24074
 Alpha virt. eigenvalues --    0.36967   0.39364   0.40244   0.46419   0.48874
 Alpha virt. eigenvalues --    0.49384   0.59097   0.66571   0.69130   0.77325

 Mulliken charges:
               1
     1  C   -0.339052
     2  H    0.173964
     3  H    0.175923
     4  C   -0.348391
     5  H    0.169316
     6  H    0.168240
 Sum of Mulliken charges =  -0.00000

 Dipole moment (field-independent basis, Debye):
    X=              0.0098    Y=              0.0366    Z=             -0.0800  Tot=              0.0885
 Quadrupole moment (field-independent basis, Debye-Ang):
   XX=            -12.2024   YY=            -12.2193   ZZ=            -15.6739
   XY=              0.0142   XZ=             -0.0013   YZ=             -0.0045

 Normal termination of Gaussian 16 at Wed Jan 11 16:36:41 2023.
