 Gaussian 16, Revision C.01,
 Gaussian 16:  ES64L-G16RevC.01  3-Jul-2019

 -------------------------------------------------------
 # WB97XD/6-311G SCF=XQC FORCE nosym pop=full guess=read
 -------------------------------------------------------

 ------------
 MD Step 1000
 ------------
 Symbolic Z-matrix:
 Charge =  0 Multiplicity = 1

                          Input orientation:
 ---------------------------------------------------------------------
 Center     Atomic      Atomic             Coordinates (Angstroms)
 Number     Number       Type             X           Y           Z
 ---------------------------------------------------------------------
      1          6           0       -0.337258   -0.583520    0.009890
      2          1           0        0.226494   -1.521950   -0.035334
      3          1           0       -1.420056   -0.578934   -0.036929
      4          6           0        0.333458    0.577671    0.007455
      5          1           0       -0.152156    1.569285   -0.041968
      6          1           0        1.443463    0.653761   -0.039988
 ---------------------------------------------------------------------

 SCF Done:  E(RwB97XD) =  -78.5549630686     A.U. after    8 cycles

 Alpha  occ. eigenvalues --  -10.29076 -10.28829  -0.86341  -0.67255  -0.55964
 Alpha  occ. eigenvalues --   -0.50875  -0.43668  -0.35640
 Alpha virt. eigenvalues --    0.07881   0.14081   0.16487   0.17020   0.24067
 Alpha virt. eigenvalues --    0.37102   0.39347   0.40073   0.46444   0.48897
 Alpha virt. eigenvalues --    0.49411   0.59073   0.66570   0.69113   0.77220

 Mulliken charges:
               1
     1  C   -0.339248
     2  H    0.174145
     3  H    0.175909
     4  C   -0.347873
     5  H    0.168865
     6  H    0.168203
 Sum of Mulliken charges =  -0.00000

 Dipole moment (field-independent basis, Debye):
    X=              0.0062    Y=              0.0265    Z=             -0.1569  Tot=              0.1592
 Quadrupole moment (field-independent basis, Debye-Ang):
   XX=            -12.2065   YY=            -12.2287   ZZ=            -15.6736
   XY=              0.0099   XZ=             -0.0013   YZ=             -0.0075

 Normal termination of Gaussian 16 at Wed Jan 11 16:48:36 2023.
