 Gaussian 16, Revision C.01,
 Gaussian 16:  ES64L-G16RevC.01  3-Jul-2019

 -------------------------------------------------------
 # WB97XD/6-311G SCF=XQC FORCE nosym pop=full guess=read
 -------------------------------------------------------

 ------------
 MD Step 1000
 ------------
 Symbolic Z-matrix:
 Charge =  0 Multiplicity = 1

                          Input orientation:
 ---------------------------------------------------------------------
 Center     Atomic      Atomic             Coordinates (Angstroms)
 Number     Number       Type             X           Y           Z
 ---------------------------------------------------------------------
      1          6           0       -0.336256   -0.581080    0.009457
      2          1           0        0.223664   -1.531481   -0.033818
      3          1           0       -1.422879   -0.587627   -0.036212
      4          6           0        0.332936    0.577779    0.006993
      5          1           0       -0.155950    1.561594   -0.040533
      6          1           0        1.441972    0.644089   -0.038198
 ---------------------------------------------------------------------

 SCF Done:  E(RwB97XD) =  -78.5554261226     A.U. after    8 cycles

 Alpha  occ. eigenvalues --  -10.28994 -10.28879  -0.86380  -0.67208  -0.55913
 Alpha  occ. eigenvalues --   -0.50922  -0.43635  -0.35687
 Alpha virt. eigenvalues --    0.07947   0.14075   0.16452   0.17009   0.24086
 Alpha virt. eigenvalues --    0.37328   0.39316   0.39914   0.46439   0.48829
 Alpha virt. eigenvalues --    0.49377   0.59103   0.66526   0.69037   0.77316

 Mulliken charges:
               1
     1  C   -0.339349
     2  H    0.172496
     3  H    0.174738
     4  C   -0.346111
     5  H    0.169759
     6  H    0.168468
 Sum of Mulliken charges =  -0.00000

 Dipole moment (field-independent basis, Debye):
    X=              0.0022    Y=              0.0271    Z=             -0.1506  Tot=              0.1530
 Quadrupole moment (field-independent basis, Debye-Ang):
   XX=            -12.2082   YY=            -12.2285   ZZ=            -15.6693
   XY=              0.0083   XZ=             -0.0000   YZ=             -0.0072

 Normal termination of Gaussian 16 at Wed Jan 11 19:46:03 2023.
