 Gaussian 16, Revision C.01,
 Gaussian 16:  ES64L-G16RevC.01  3-Jul-2019

 -------------------------------------------------------
 # WB97XD/6-311G SCF=XQC FORCE nosym pop=full guess=read
 -------------------------------------------------------

 -----------
 MD Step 999
 -----------
 Symbolic Z-matrix:
 Charge =  0 Multiplicity = 1

                          Input orientation:
 ---------------------------------------------------------------------
 Center     Atomic      Atomic             Coordinates (Angstroms)
 Number     Number       Type             X           Y           Z
 ---------------------------------------------------------------------
      1          6           0       -0.335050   -0.580064    0.005961
      2          1           0        0.206347   -1.532045   -0.019131
      3          1           0       -1.417176   -0.591447   -0.019468
      4          6           0        0.332931    0.576267    0.004196
      5          1           0       -0.169113    1.564953   -0.019944
      6          1           0        1.448002    0.646614   -0.019669
 ---------------------------------------------------------------------

 SCF Done:  E(RwB97XD) =  -78.5557996207     A.U. after    8 cycles

 Alpha  occ. eigenvalues --  -10.29105 -10.28714  -0.86423  -0.67193  -0.55887
 Alpha  occ. eigenvalues --   -0.51032  -0.43569  -0.35737
 Alpha virt. eigenvalues --    0.08042   0.14100   0.16431   0.16989   0.24086
 Alpha virt. eigenvalues --    0.37649   0.39212   0.39813   0.46291   0.48825
 Alpha virt. eigenvalues --    0.49345   0.59127   0.66496   0.69082   0.77194

 Mulliken charges:
               1
     1  C   -0.339566
     2  H    0.173043
     3  H    0.174542
     4  C   -0.344901
     5  H    0.168440
     6  H    0.168442
 Sum of Mulliken charges =   0.00000

 Dipole moment (field-independent basis, Debye):
    X=             -0.0059    Y=              0.0116    Z=             -0.0815  Tot=              0.0825
 Quadrupole moment (field-independent basis, Debye-Ang):
   XX=            -12.2106   YY=            -12.2086   ZZ=            -15.6660
   XY=              0.0285   XZ=              0.0011   YZ=              0.0010

 Normal termination of Gaussian 16 at Wed Jan 11 18:30:37 2023.
