 Gaussian 16, Revision C.01,
 Gaussian 16:  ES64L-G16RevC.01  3-Jul-2019

 -----------------------------------------
 # BLYP/3-21G SCF=XQC FORCE nosym pop=full
 -----------------------------------------

 -----------
 MD Step 158
 -----------
 Symbolic Z-matrix:
 Charge =  0 Multiplicity = 1

                          Input orientation:
 ---------------------------------------------------------------------
 Center     Atomic      Atomic             Coordinates (Angstroms)
 Number     Number       Type             X           Y           Z
 ---------------------------------------------------------------------
      1          6           0       -0.274005   -0.625862    0.148363
      2          1           0       -0.266878   -1.552017   -0.598716
      3          1           0       -1.273069   -0.938967    0.684943
      4          6           0        0.384750    0.759331   -0.222267
      5          1           0       -0.062247    1.664335   -0.511634
      6          1           0        0.330408   -0.707679    1.369137
 ---------------------------------------------------------------------

 SCF Done:  E(RB-LYP) =  -77.8981265397     A.U. after   28 cycles

 Alpha  occ. eigenvalues --   -9.91247  -9.90509  -0.65086  -0.53279  -0.38981
 Alpha  occ. eigenvalues --   -0.35986  -0.27714  -0.13280
 Alpha virt. eigenvalues --   -0.13245   0.02795   0.08261   0.12247   0.13767
 Alpha virt. eigenvalues --    0.24209   0.64371   0.68493   0.69621   0.74379
 Alpha virt. eigenvalues --    0.80930   0.87178   0.88424   0.93131   0.94648

 Mulliken charges:
               1
     1  C   -0.533898
     2  H    0.215056
     3  H    0.140491
     4  C   -0.146183
     5  H    0.179344
     6  H    0.145191
 Sum of Mulliken charges =   0.00000

 Dipole moment (field-independent basis, Debye):
    X=             -1.6627    Y=             -0.3132    Z=              0.1322  Tot=              1.6971
 Quadrupole moment (field-independent basis, Debye-Ang):
   XX=            -17.9317   YY=            -12.0110   ZZ=            -12.5118
   XY=             -0.5763   XZ=              0.7122   YZ=              0.3119

 Normal termination of Gaussian 16 at Sun Jan  1 19:27:49 2023.
