 Gaussian 16, Revision C.01,
 Gaussian 16:  ES64L-G16RevC.01  3-Jul-2019

 ----------------------------------------------
 # WB97XD/6-311+G* SCF=XQC FORCE nosym pop=full
 ----------------------------------------------

 -----------
 MD Step 571
 -----------
 Symbolic Z-matrix:
 Charge =  0 Multiplicity = 1

                          Input orientation:
 ---------------------------------------------------------------------
 Center     Atomic      Atomic             Coordinates (Angstroms)
 Number     Number       Type             X           Y           Z
 ---------------------------------------------------------------------
      1          6           0       -0.143660   -0.653563    0.103388
      2          1           0        0.477638   -1.603300   -0.515618
      3          1           0       -1.070068   -1.304848    0.292859
      4          6           0        0.087285    0.864101   -0.124611
      5          1           0        0.971600    0.736802   -0.602480
      6          1           0        0.364861   -0.285616    1.140120
 ---------------------------------------------------------------------

 SCF Done:  E(RwB97XD) =  -78.4032582214     A.U. after   14 cycles

 Alpha  occ. eigenvalues --  -10.34719 -10.33972  -0.87558  -0.69025  -0.54218
 Alpha  occ. eigenvalues --   -0.47394  -0.43750  -0.32655
 Alpha virt. eigenvalues --   -0.00997   0.06224   0.08478   0.10471   0.11026
 Alpha virt. eigenvalues --    0.13274   0.14749   0.15473   0.17067   0.19483
 Alpha virt. eigenvalues --    0.21334   0.23195   0.27561   0.31279   0.47633

 Mulliken charges:
               1
     1  C   -0.605954
     2  H    0.180761
     3  H    0.282662
     4  C   -0.367494
     5  H    0.250062
     6  H    0.259964
 Sum of Mulliken charges =  -0.00000

 Dipole moment (field-independent basis, Debye):
    X=              0.9401    Y=             -2.1768    Z=             -0.1613  Tot=              2.3766
 Quadrupole moment (field-independent basis, Debye-Ang):
   XX=            -14.3181   YY=            -17.2404   ZZ=            -13.4440
   XY=              1.9461   XZ=              0.1103   YZ=             -0.8312

 1\1\GINC-BHX0029\Force\RwB97XD\6-311+G(d)\C2H4\BWEIGHT\03-Jan-2023\0\\
 # WB97XD/6-311+G* SCF=XQC FORCE nosym pop=full\\MD Step 571\\0,1\C,-0.
 14366031,-0.65356283,0.10338814\H,0.47763801,-1.60330036,-0.51561816\H
 ,-1.07006809,-1.30484788,0.29285911\C,0.08728505,0.86410079,-0.1246111
 4\H,0.97159988,0.73680191,-0.60247964\H,0.3648614,-0.28561552,1.140120
 49\\Version=ES64L-G16RevC.01\HF=-78.4032582\RMSD=1.512e-09\RMSF=3.874e
 -02\Dipole=0.3698683,-0.8564244,-0.0634622\Quadrupole=0.5076122,-1.665
 0532,1.157441,1.4468649,0.0819942,-0.6179477\PG=C01 [X(C2H4)]\\@

 Normal termination of Gaussian 16 at Tue Jan  3 13:54:08 2023.
