 Gaussian 16, Revision C.01,
 Gaussian 16:  ES64L-G16RevC.01  3-Jul-2019

 -------------------------------------------------------
 # WB97XD/6-311G SCF=XQC FORCE nosym pop=full guess=read
 -------------------------------------------------------

 -----------
 MD Step 999
 -----------
 Symbolic Z-matrix:
 Charge =  0 Multiplicity = 1

                          Input orientation:
 ---------------------------------------------------------------------
 Center     Atomic      Atomic             Coordinates (Angstroms)
 Number     Number       Type             X           Y           Z
 ---------------------------------------------------------------------
      1          6           0       -0.336149   -0.582013    0.006137
      2          1           0        0.219818   -1.526516   -0.019308
      3          1           0       -1.421836   -0.581355   -0.019967
      4          6           0        0.332714    0.576088    0.004360
      5          1           0       -0.157365    1.566759   -0.022774
      6          1           0        1.441184    0.652585   -0.022152
 ---------------------------------------------------------------------

 SCF Done:  E(RwB97XD) =  -78.5556394713     A.U. after    8 cycles

 Alpha  occ. eigenvalues --  -10.29013 -10.28793  -0.86400  -0.67231  -0.55948
 Alpha  occ. eigenvalues --   -0.50956  -0.43623  -0.35700
 Alpha virt. eigenvalues --    0.08002   0.14102   0.16470   0.17012   0.24083
 Alpha virt. eigenvalues --    0.37285   0.39326   0.40025   0.46381   0.48873
 Alpha virt. eigenvalues --    0.49370   0.59113   0.66560   0.69142   0.77278

 Mulliken charges:
               1
     1  C   -0.339213
     2  H    0.173715
     3  H    0.175100
     4  C   -0.346794
     5  H    0.168642
     6  H    0.168549
 Sum of Mulliken charges =   0.00000

 Dipole moment (field-independent basis, Debye):
    X=              0.0054    Y=              0.0237    Z=             -0.0872  Tot=              0.0905
 Quadrupole moment (field-independent basis, Debye-Ang):
   XX=            -12.2054   YY=            -12.2153   ZZ=            -15.6678
   XY=              0.0174   XZ=             -0.0010   YZ=             -0.0037

 Normal termination of Gaussian 16 at Wed Jan 11 18:50:21 2023.
