 Gaussian 16, Revision C.01,
 Gaussian 16:  ES64L-G16RevC.01  3-Jul-2019

 -------------------------------------------------------
 # WB97XD/6-311G SCF=XQC FORCE nosym pop=full guess=read
 -------------------------------------------------------

 -----------
 MD Step 999
 -----------
 Symbolic Z-matrix:
 Charge =  0 Multiplicity = 1

                          Input orientation:
 ---------------------------------------------------------------------
 Center     Atomic      Atomic             Coordinates (Angstroms)
 Number     Number       Type             X           Y           Z
 ---------------------------------------------------------------------
      1          6           0       -0.337114   -0.583160    0.008045
      2          1           0        0.225716   -1.522738   -0.027628
      3          1           0       -1.419247   -0.576107   -0.028230
      4          6           0        0.332075    0.575717    0.005208
      5          1           0       -0.150419    1.568767   -0.031315
      6          1           0        1.444308    0.659069   -0.030434
 ---------------------------------------------------------------------

 SCF Done:  E(RwB97XD) =  -78.5550465245     A.U. after    8 cycles

 Alpha  occ. eigenvalues --  -10.29051 -10.28788  -0.86395  -0.67247  -0.55967
 Alpha  occ. eigenvalues --   -0.50942  -0.43599  -0.35689
 Alpha virt. eigenvalues --    0.07964   0.14093   0.16475   0.17006   0.24073
 Alpha virt. eigenvalues --    0.37114   0.39309   0.40198   0.46361   0.48924
 Alpha virt. eigenvalues --    0.49379   0.59102   0.66554   0.69147   0.77235

 Mulliken charges:
               1
     1  C   -0.338933
     2  H    0.174383
     3  H    0.176005
     4  C   -0.348053
     5  H    0.168706
     6  H    0.167892
 Sum of Mulliken charges =  -0.00000

 Dipole moment (field-independent basis, Debye):
    X=              0.0043    Y=              0.0296    Z=             -0.1196  Tot=              0.1233
 Quadrupole moment (field-independent basis, Debye-Ang):
   XX=            -12.2106   YY=            -12.2174   ZZ=            -15.6684
   XY=              0.0187   XZ=             -0.0004   YZ=             -0.0026

 Normal termination of Gaussian 16 at Wed Jan 11 19:57:14 2023.
