 Gaussian 16, Revision C.01,
 Gaussian 16:  ES64L-G16RevC.01  3-Jul-2019

 -------------------------------------------------------
 # WB97XD/6-311G SCF=XQC FORCE nosym pop=full guess=read
 -------------------------------------------------------

 -----------
 MD Step 999
 -----------
 Symbolic Z-matrix:
 Charge =  0 Multiplicity = 1

                          Input orientation:
 ---------------------------------------------------------------------
 Center     Atomic      Atomic             Coordinates (Angstroms)
 Number     Number       Type             X           Y           Z
 ---------------------------------------------------------------------
      1          6           0       -0.336072   -0.581444    0.004662
      2          1           0        0.218394   -1.531824   -0.013402
      3          1           0       -1.422787   -0.583696   -0.013572
      4          6           0        0.332815    0.576494    0.003385
      5          1           0       -0.160473    1.563027   -0.014957
      6          1           0        1.442715    0.650545   -0.014892
 ---------------------------------------------------------------------

 SCF Done:  E(RwB97XD) =  -78.5557980545     A.U. after    8 cycles

 Alpha  occ. eigenvalues --  -10.29008 -10.28833  -0.86389  -0.67203  -0.55920
 Alpha  occ. eigenvalues --   -0.50947  -0.43622  -0.35703
 Alpha virt. eigenvalues --    0.08014   0.14091   0.16452   0.16995   0.24078
 Alpha virt. eigenvalues --    0.37340   0.39311   0.39937   0.46376   0.48799
 Alpha virt. eigenvalues --    0.49366   0.59111   0.66545   0.69078   0.77285

 Mulliken charges:
               1
     1  C   -0.339379
     2  H    0.173145
     3  H    0.174746
     4  C   -0.346172
     5  H    0.168983
     6  H    0.168676
 Sum of Mulliken charges =   0.00000

 Dipole moment (field-independent basis, Debye):
    X=              0.0015    Y=              0.0248    Z=             -0.0604  Tot=              0.0653
 Quadrupole moment (field-independent basis, Debye-Ang):
   XX=            -12.2031   YY=            -12.2161   ZZ=            -15.6731
   XY=              0.0156   XZ=             -0.0006   YZ=             -0.0012

 Normal termination of Gaussian 16 at Wed Jan 11 16:35:20 2023.
