 Gaussian 16, Revision C.01,
 Gaussian 16:  ES64L-G16RevC.01  3-Jul-2019

 -------------------------------------------------------
 # WB97XD/6-311G SCF=XQC FORCE nosym pop=full guess=read
 -------------------------------------------------------

 ------------
 MD Step 1000
 ------------
 Symbolic Z-matrix:
 Charge =  0 Multiplicity = 1

                          Input orientation:
 ---------------------------------------------------------------------
 Center     Atomic      Atomic             Coordinates (Angstroms)
 Number     Number       Type             X           Y           Z
 ---------------------------------------------------------------------
      1          6           0       -0.336943   -0.582725    0.004554
      2          1           0        0.225306   -1.526967   -0.011521
      3          1           0       -1.422362   -0.578443   -0.012345
      4          6           0        0.332833    0.576812    0.003182
      5          1           0       -0.154676    1.563013   -0.014462
      6          1           0        1.440995    0.653147   -0.013549
 ---------------------------------------------------------------------

 SCF Done:  E(RwB97XD) =  -78.5556747194     A.U. after    8 cycles

 Alpha  occ. eigenvalues --  -10.28972 -10.28830  -0.86372  -0.67253  -0.55987
 Alpha  occ. eigenvalues --   -0.50887  -0.43689  -0.35667
 Alpha virt. eigenvalues --    0.07981   0.14098   0.16500   0.17030   0.24077
 Alpha virt. eigenvalues --    0.37136   0.39420   0.40027   0.46457   0.48867
 Alpha virt. eigenvalues --    0.49392   0.59100   0.66601   0.69190   0.77329

 Mulliken charges:
               1
     1  C   -0.339377
     2  H    0.173674
     3  H    0.175370
     4  C   -0.347354
     5  H    0.169159
     6  H    0.168528
 Sum of Mulliken charges =  -0.00000

 Dipole moment (field-independent basis, Debye):
    X=              0.0047    Y=              0.0303    Z=             -0.0560  Tot=              0.0638
 Quadrupole moment (field-independent basis, Debye-Ang):
   XX=            -12.1965   YY=            -12.2198   ZZ=            -15.6723
   XY=              0.0077   XZ=             -0.0001   YZ=             -0.0030

 Normal termination of Gaussian 16 at Wed Jan 11 18:47:35 2023.
