 Gaussian 16, Revision C.01,
 Gaussian 16:  ES64L-G16RevC.01  3-Jul-2019

 ----------------------------------------------------------------------
 # BLYP/3-21G* SCF=XQC TD=(read,singlets,nstates=8,root=4) FORCE nosym
 pop=full guess=read
 ----------------------------------------------------------------------

 ------------
 MD Step 1000
 ------------
 Symbolic Z-matrix:
 Charge =  0 Multiplicity = 1

                          Input orientation:
 ---------------------------------------------------------------------
 Center     Atomic      Atomic             Coordinates (Angstroms)
 Number     Number       Type             X           Y           Z
 ---------------------------------------------------------------------
      1          3           0        2.210548    2.207291    1.699475
      2          9           0        0.667501    0.668618    3.854159
 ---------------------------------------------------------------------

 SCF Done:  E(RB-LYP) =  -106.665424495     A.U. after    1 cycles

 Excitation energies and oscillator strengths:

 Excited state symmetry could not be determined.
 Excited State   1:      Singlet-?Sym    0.3427 eV 3617.65 nm  f=0.0025  <S**2>=0.000
       6 ->  7         0.70955

 Excited state symmetry could not be determined.
 Excited State   2:      Singlet-?Sym    0.3427 eV 3617.39 nm  f=0.0025  <S**2>=0.000
       5 ->  7         0.70956

 Excited state symmetry could not be determined.
 Excited State   3:      Singlet-?Sym    1.4511 eV  854.39 nm  f=0.0144  <S**2>=0.000
       4 ->  7         0.64320
       5 ->  8         0.21599
       6 ->  9         0.21599
       4 <-  7        -0.10947

 Excited state symmetry could not be determined.
 Excited State   4:      Singlet-?Sym    2.0203 eV  613.70 nm  f=0.0000  <S**2>=0.000
       5 ->  9         0.49970
       6 ->  8         0.50007
 This state for optimization and/or second-order correction.
 Total Energy, E(TD-HF/TD-DFT) =  -106.591181033
 Copying the excited state density for this state as the 1-particle RhoCI density.

 Excited state symmetry could not be determined.
 Excited State   5:      Singlet-?Sym    2.0203 eV  613.70 nm  f=0.0000  <S**2>=0.000
       5 ->  8        -0.49988
       6 ->  9         0.49988

 Excited state symmetry could not be determined.
 Excited State   6:      Singlet-?Sym    2.0310 eV  610.46 nm  f=0.0000  <S**2>=0.000
       5 ->  9         0.50016
       6 ->  8        -0.49979

 Excited state symmetry could not be determined.
 Excited State   7:      Singlet-?Sym    2.7811 eV  445.82 nm  f=0.0934  <S**2>=0.000
       4 ->  9         0.69388
       6 -> 10         0.13439

 Excited state symmetry could not be determined.
 Excited State   8:      Singlet-?Sym    2.7811 eV  445.81 nm  f=0.0934  <S**2>=0.000
       4 ->  8         0.69388
       5 -> 10         0.13436

 Alpha  occ. eigenvalues --  -23.95349  -1.95087  -0.80836  -0.14575  -0.11847
 Alpha  occ. eigenvalues --   -0.11847
 Alpha virt. eigenvalues --   -0.10793  -0.04383  -0.04383  -0.00400   0.06782
 Alpha virt. eigenvalues --    0.07083   0.07083   0.10912   1.90332   1.90332
 Alpha virt. eigenvalues --    1.91232   3.04128

 Mulliken charges:
               1
     1  Li   0.344628
     2  F   -0.344628
 Sum of Mulliken charges =  -0.00000

 Dipole moment (field-independent basis, Debye):
    X=              3.5967    Y=              3.5865    Z=             -5.0223  Tot=              7.1430
 Quadrupole moment (field-independent basis, Debye-Ang):
   XX=              0.7929   YY=              0.7484   ZZ=            -36.1982
   XY=             11.6478   XZ=              0.9187   YZ=              0.9010

 Normal termination of Gaussian 16 at Thu Dec 29 13:12:46 2022.
