 Gaussian 16, Revision C.01,
 Gaussian 16:  ES64L-G16RevC.01  3-Jul-2019

 ------------------------------------------
 # BLYP/STO-3G SCF=XQC FORCE nosym pop=full
 ------------------------------------------

 -----------
 MD Step 999
 -----------
 Symbolic Z-matrix:
 Charge =  0 Multiplicity = 1

                          Input orientation:
 ---------------------------------------------------------------------
 Center     Atomic      Atomic             Coordinates (Angstroms)
 Number     Number       Type             X           Y           Z
 ---------------------------------------------------------------------
      1          3           0        1.753695    1.695457    2.353501
      2          1           0        2.374573    2.776215    1.241106
 ---------------------------------------------------------------------

 SCF Done:  E(RB-LYP) =  -7.94210970066     A.U. after   10 cycles

 Alpha  occ. eigenvalues --   -1.77436  -0.13538
 Alpha virt. eigenvalues --   -0.02752   0.03321   0.03321   0.31496

 Mulliken charges:
               1
     1  Li  -0.004480
     2  H    0.004480
 Sum of Mulliken charges =  -0.00000

 Dipole moment (field-independent basis, Debye):
    X=             -1.7474    Y=             -3.0418    Z=              3.1308  Tot=              4.7019
 Quadrupole moment (field-independent basis, Debye-Ang):
   XX=            -12.0137   YY=            -17.1188   ZZ=              7.8507
   XY=             -9.0857   XZ=              2.1896   YZ=             -0.4376

 Normal termination of Gaussian 16 at Thu Dec 29 05:44:19 2022.
