 Gaussian 16, Revision C.01,
 Gaussian 16:  ES64L-G16RevC.01  3-Jul-2019

 -------------------------------------------------------
 # WB97XD/6-311G SCF=XQC FORCE nosym pop=full guess=read
 -------------------------------------------------------

 -----------
 MD Step 999
 -----------
 Symbolic Z-matrix:
 Charge =  0 Multiplicity = 1

                          Input orientation:
 ---------------------------------------------------------------------
 Center     Atomic      Atomic             Coordinates (Angstroms)
 Number     Number       Type             X           Y           Z
 ---------------------------------------------------------------------
      1          6           0       -0.336232   -0.581681    0.010049
      2          1           0        0.217465   -1.522219   -0.035894
      3          1           0       -1.415477   -0.585228   -0.038058
      4          6           0        0.332292    0.575924    0.006580
      5          1           0       -0.158465    1.570028   -0.041394
      6          1           0        1.447243    0.649858   -0.038964
 ---------------------------------------------------------------------

 SCF Done:  E(RwB97XD) =  -78.5550765178     A.U. after    8 cycles

 Alpha  occ. eigenvalues --  -10.29120 -10.28698  -0.86427  -0.67218  -0.55949
 Alpha  occ. eigenvalues --   -0.50987  -0.43579  -0.35715
 Alpha virt. eigenvalues --    0.07970   0.14092   0.16452   0.17018   0.24084
 Alpha virt. eigenvalues --    0.37410   0.39265   0.39994   0.46321   0.48955
 Alpha virt. eigenvalues --    0.49364   0.59118   0.66503   0.69150   0.77176

 Mulliken charges:
               1
     1  C   -0.339008
     2  H    0.173843
     3  H    0.175608
     4  C   -0.346589
     5  H    0.168386
     6  H    0.167760
 Sum of Mulliken charges =  -0.00000

 Dipole moment (field-independent basis, Debye):
    X=              0.0001    Y=              0.0169    Z=             -0.1554  Tot=              0.1563
 Quadrupole moment (field-independent basis, Debye-Ang):
   XX=            -12.2148   YY=            -12.2221   ZZ=            -15.6603
   XY=              0.0202   XZ=              0.0022   YZ=             -0.0034

 Normal termination of Gaussian 16 at Wed Jan 11 18:33:26 2023.
