 Gaussian 16, Revision C.01,
 Gaussian 16:  ES64L-G16RevC.01  3-Jul-2019

 -------------------------------------------------------
 # WB97XD/6-311G SCF=XQC FORCE nosym pop=full guess=read
 -------------------------------------------------------

 -----------
 MD Step 999
 -----------
 Symbolic Z-matrix:
 Charge =  0 Multiplicity = 1

                          Input orientation:
 ---------------------------------------------------------------------
 Center     Atomic      Atomic             Coordinates (Angstroms)
 Number     Number       Type             X           Y           Z
 ---------------------------------------------------------------------
      1          6           0       -0.338532   -0.585796    0.005846
      2          1           0        0.235470   -1.509506   -0.015133
      3          1           0       -1.415972   -0.564860   -0.016620
      4          6           0        0.331709    0.574973    0.003397
      5          1           0       -0.140248    1.576190   -0.019781
      6          1           0        1.442453    0.667533   -0.018200
 ---------------------------------------------------------------------

 SCF Done:  E(RwB97XD) =  -78.5544995240     A.U. after    8 cycles

 Alpha  occ. eigenvalues --  -10.29056 -10.28706  -0.86393  -0.67327  -0.56115
 Alpha  occ. eigenvalues --   -0.50870  -0.43649  -0.35649
 Alpha virt. eigenvalues --    0.07943   0.14113   0.16549   0.17050   0.24057
 Alpha virt. eigenvalues --    0.36737   0.39457   0.40458   0.46386   0.49093
 Alpha virt. eigenvalues --    0.49409   0.59090   0.66642   0.69391   0.77197

 Mulliken charges:
               1
     1  C   -0.339067
     2  H    0.176335
     3  H    0.177809
     4  C   -0.350785
     5  H    0.168199
     6  H    0.167510
 Sum of Mulliken charges =  -0.00000

 Dipole moment (field-independent basis, Debye):
    X=              0.0119    Y=              0.0339    Z=             -0.0736  Tot=              0.0819
 Quadrupole moment (field-independent basis, Debye-Ang):
   XX=            -12.2019   YY=            -12.2168   ZZ=            -15.6675
   XY=              0.0141   XZ=              0.0006   YZ=             -0.0040

 Normal termination of Gaussian 16 at Wed Jan 11 19:41:36 2023.
