 Gaussian 16, Revision C.01,
 Gaussian 16:  ES64L-G16RevC.01  3-Jul-2019

 -------------------------------------------------------
 # WB97XD/6-311G SCF=XQC FORCE nosym pop=full guess=read
 -------------------------------------------------------

 ------------
 MD Step 1000
 ------------
 Symbolic Z-matrix:
 Charge =  0 Multiplicity = 1

                          Input orientation:
 ---------------------------------------------------------------------
 Center     Atomic      Atomic             Coordinates (Angstroms)
 Number     Number       Type             X           Y           Z
 ---------------------------------------------------------------------
      1          6           0       -0.337925   -0.583860    0.005770
      2          1           0        0.232074   -1.526219   -0.019331
      3          1           0       -1.425431   -0.577088   -0.020083
      4          6           0        0.332557    0.577054    0.004117
      5          1           0       -0.147791    1.563508   -0.023234
      6          1           0        1.438026    0.653798   -0.022265
 ---------------------------------------------------------------------

 SCF Done:  E(RwB97XD) =  -78.5553946258     A.U. after    8 cycles

 Alpha  occ. eigenvalues --  -10.28965 -10.28879  -0.86342  -0.67278  -0.55981
 Alpha  occ. eigenvalues --   -0.50852  -0.43704  -0.35640
 Alpha virt. eigenvalues --    0.07936   0.14087   0.16510   0.17026   0.24075
 Alpha virt. eigenvalues --    0.36967   0.39432   0.40132   0.46505   0.48861
 Alpha virt. eigenvalues --    0.49409   0.59083   0.66604   0.69164   0.77362

 Mulliken charges:
               1
     1  C   -0.339344
     2  H    0.173715
     3  H    0.175624
     4  C   -0.348180
     5  H    0.169630
     6  H    0.168556
 Sum of Mulliken charges =   0.00000

 Dipole moment (field-independent basis, Debye):
    X=              0.0095    Y=              0.0366    Z=             -0.0871  Tot=              0.0950
 Quadrupole moment (field-independent basis, Debye-Ang):
   XX=            -12.1966   YY=            -12.2228   ZZ=            -15.6760
   XY=              0.0058   XZ=             -0.0012   YZ=             -0.0044

 Normal termination of Gaussian 16 at Wed Jan 11 16:37:02 2023.
