 Gaussian 16, Revision C.01,
 Gaussian 16:  ES64L-G16RevC.01  3-Jul-2019

 -------------------------------------------------------
 # WB97XD/6-311G SCF=XQC FORCE nosym pop=full guess=read
 -------------------------------------------------------

 ------------
 MD Step 1000
 ------------
 Symbolic Z-matrix:
 Charge =  0 Multiplicity = 1

                          Input orientation:
 ---------------------------------------------------------------------
 Center     Atomic      Atomic             Coordinates (Angstroms)
 Number     Number       Type             X           Y           Z
 ---------------------------------------------------------------------
      1          6           0       -0.335279   -0.580467    0.009732
      2          1           0        0.208062   -1.533981   -0.039643
      3          1           0       -1.421140   -0.597649   -0.041411
      4          6           0        0.334255    0.579311    0.008371
      5          1           0       -0.169526    1.558605   -0.044471
      6          1           0        1.442692    0.634695   -0.042292
 ---------------------------------------------------------------------

 SCF Done:  E(RwB97XD) =  -78.5557584240     A.U. after    8 cycles

 Alpha  occ. eigenvalues --  -10.29037 -10.28821  -0.86360  -0.67235  -0.55898
 Alpha  occ. eigenvalues --   -0.50938  -0.43690  -0.35667
 Alpha virt. eigenvalues --    0.07912   0.14094   0.16470   0.17034   0.24095
 Alpha virt. eigenvalues --    0.37626   0.39303   0.39653   0.46488   0.48832
 Alpha virt. eigenvalues --    0.49393   0.59097   0.66547   0.69062   0.77293

 Mulliken charges:
               1
     1  C   -0.340219
     2  H    0.172129
     3  H    0.173802
     4  C   -0.344471
     5  H    0.169674
     6  H    0.169085
 Sum of Mulliken charges =  -0.00000

 Dipole moment (field-independent basis, Debye):
    X=             -0.0026    Y=              0.0123    Z=             -0.1690  Tot=              0.1694
 Quadrupole moment (field-independent basis, Debye-Ang):
   XX=            -12.2097   YY=            -12.2242   ZZ=            -15.6653
   XY=              0.0107   XZ=              0.0005   YZ=             -0.0053

 Normal termination of Gaussian 16 at Wed Jan 11 19:58:52 2023.
