 Gaussian 16, Revision C.01,
 Gaussian 16:  ES64L-G16RevC.01  3-Jul-2019

 -------------------------------------------------------
 # WB97XD/6-311G SCF=XQC FORCE nosym pop=full guess=read
 -------------------------------------------------------

 -----------
 MD Step 999
 -----------
 Symbolic Z-matrix:
 Charge =  0 Multiplicity = 1

                          Input orientation:
 ---------------------------------------------------------------------
 Center     Atomic      Atomic             Coordinates (Angstroms)
 Number     Number       Type             X           Y           Z
 ---------------------------------------------------------------------
      1          6           0       -0.336852   -0.581534    0.006903
      2          1           0        0.222060   -1.529101   -0.026252
      3          1           0       -1.421873   -0.590335   -0.028226
      4          6           0        0.331837    0.576350    0.005201
      5          1           0       -0.154625    1.565532   -0.031007
      6          1           0        1.444240    0.645707   -0.028707
 ---------------------------------------------------------------------

 SCF Done:  E(RwB97XD) =  -78.5555103480     A.U. after    8 cycles

 Alpha  occ. eigenvalues --  -10.29034 -10.28830  -0.86394  -0.67208  -0.55900
 Alpha  occ. eigenvalues --   -0.50974  -0.43589  -0.35708
 Alpha virt. eigenvalues --    0.07990   0.14085   0.16445   0.16988   0.24081
 Alpha virt. eigenvalues --    0.37373   0.39253   0.39982   0.46356   0.48821
 Alpha virt. eigenvalues --    0.49363   0.59109   0.66521   0.69037   0.77263

 Mulliken charges:
               1
     1  C   -0.339245
     2  H    0.172838
     3  H    0.175149
     4  C   -0.346191
     5  H    0.169411
     6  H    0.168039
 Sum of Mulliken charges =   0.00000

 Dipole moment (field-independent basis, Debye):
    X=              0.0016    Y=              0.0236    Z=             -0.1146  Tot=              0.1170
 Quadrupole moment (field-independent basis, Debye-Ang):
   XX=            -12.2094   YY=            -12.2176   ZZ=            -15.6699
   XY=              0.0215   XZ=              0.0012   YZ=             -0.0045

 Normal termination of Gaussian 16 at Wed Jan 11 18:38:27 2023.
