 Gaussian 16, Revision C.01,
 Gaussian 16:  ES64L-G16RevC.01  3-Jul-2019

 ----------------------------------------------------------------------
 # B3LYP/6-31G* SCF=XQC TD=(singlets,nstates=2,root=1) FORCE nosym pop=
 full guess=read
 ----------------------------------------------------------------------

 -----------
 MD Step 123
 -----------
 Symbolic Z-matrix:
 Charge =  0 Multiplicity = 1

                          Input orientation:
 ---------------------------------------------------------------------
 Center     Atomic      Atomic             Coordinates (Angstroms)
 Number     Number       Type             X           Y           Z
 ---------------------------------------------------------------------
      1          3           0        1.029887    1.029538    0.819165
      2          9           0        0.617469    0.617561    4.694513
 ---------------------------------------------------------------------

 SCF Done:  E(RB3LYP) =  -107.237245484     A.U. after    1 cycles

 Excitation energies and oscillator strengths:

 Excited state symmetry could not be determined.
 Excited State   1:      Singlet-?Sym    0.1528 eV 8113.70 nm  f=0.0001  <S**2>=0.000
       4 ->  7        -0.75624
       4 -> 10        -0.10259
       4 <-  7         0.28054
 This state for optimization and/or second-order correction.
 Total Energy, E(TD-HF/TD-DFT) =  -107.231629878
 Copying the excited state density for this state as the 1-particle RhoCI density.

 Excited state symmetry could not be determined.
 Excited State   2:      Singlet-?Sym    0.1528 eV 8113.69 nm  f=0.0001  <S**2>=0.000
       5 ->  7        -0.75624
       5 -> 10        -0.10259
       5 <-  7         0.28054

 Alpha  occ. eigenvalues --  -24.45609  -2.13775  -0.88966  -0.16658  -0.16658
 Alpha  occ. eigenvalues --   -0.16638
 Alpha virt. eigenvalues --   -0.12316  -0.04683  -0.04683  -0.02312   0.07557
 Alpha virt. eigenvalues --    0.08057   0.08057   0.12762   0.38733   0.38733
 Alpha virt. eigenvalues --    0.39167   0.39167   0.39415   1.04298   1.13216

 Mulliken charges:
               1
     1  Li   0.532562
     2  F   -0.532562
 Sum of Mulliken charges =  -0.00000

 Dipole moment (field-independent basis, Debye):
    X=              1.2205    Y=              1.2192    Z=            -11.4691  Tot=             11.5981
 Quadrupole moment (field-independent basis, Debye-Ang):
   XX=             -6.9709   YY=             -6.9735   ZZ=            -67.3603
   XY=              2.0650   XZ=             -6.6049   YZ=             -6.6065

 Normal termination of Gaussian 16 at Fri Dec 30 21:58:14 2022.
