 Gaussian 16, Revision C.01,
 Gaussian 16:  ES64L-G16RevC.01  3-Jul-2019

 ----------------------------------------------------------------------
 # WB97XD/6-311G SCF=XQC TD=(singlets,nstates=2,root=1) FORCE nosym pop
 =full guess=read
 ----------------------------------------------------------------------

 -----------
 MD Step 999
 -----------
 Symbolic Z-matrix:
 Charge =  0 Multiplicity = 1

                          Input orientation:
 ---------------------------------------------------------------------
 Center     Atomic      Atomic             Coordinates (Angstroms)
 Number     Number       Type             X           Y           Z
 ---------------------------------------------------------------------
      1          6           0       -0.267497   -0.080726   -0.036148
      2          1           0        0.051064   -1.121914   -0.164316
      3          1           0       -1.371704    0.156782   -0.259936
      4          6           0        0.720230    0.888215    0.021428
      5          1           0        0.320062    1.898882   -0.272380
      6          1           0        1.792104    0.546109   -0.210648
 ---------------------------------------------------------------------

 SCF Done:  E(RwB97XD) =  -78.5335654370     A.U. after    1 cycles

 Excitation energies and oscillator strengths:

 Excited state symmetry could not be determined.
 Excited State   1:      Singlet-?Sym    7.3713 eV  168.20 nm  f=0.3140  <S**2>=0.000
       6 ->  9         0.11962
       7 ->  9         0.12108
       8 ->  9         0.68056
       8 <-  9        -0.10154
 This state for optimization and/or second-order correction.
 Total Energy, E(TD-HF/TD-DFT) =  -78.2626733698
 Copying the excited state density for this state as the 1-particle RhoCI density.

 Excited state symmetry could not be determined.
 Excited State   2:      Singlet-?Sym    7.7788 eV  159.39 nm  f=0.0171  <S**2>=0.000
       7 ->  9         0.68879
       8 ->  9        -0.12633

 Alpha  occ. eigenvalues --  -10.30297 -10.30214  -0.85721  -0.66262  -0.55692
 Alpha  occ. eigenvalues --   -0.49004  -0.43825  -0.35097
 Alpha virt. eigenvalues --    0.05723   0.13027   0.15545   0.17109   0.23752
 Alpha virt. eigenvalues --    0.34998   0.38287   0.39595   0.47156   0.48830
 Alpha virt. eigenvalues --    0.50002   0.58529   0.64907   0.65632   0.71311

 Mulliken charges:
               1
     1  C   -0.356688
     2  H    0.173347
     3  H    0.176177
     4  C   -0.334789
     5  H    0.168802
     6  H    0.173152
 Sum of Mulliken charges =  -0.00000

 Dipole moment (field-independent basis, Debye):
    X=             -0.0784    Y=             -0.1509    Z=             -0.7342  Tot=              0.7536
 Quadrupole moment (field-independent basis, Debye-Ang):
   XX=            -12.3543   YY=            -12.9108   ZZ=            -15.7136
   XY=             -0.5363   XZ=             -0.1444   YZ=             -0.4803

 Normal termination of Gaussian 16 at Thu Jan  5 17:57:09 2023.
