 Gaussian 16, Revision C.01,
 Gaussian 16:  ES64L-G16RevC.01  3-Jul-2019

 -------------------------------------------------------
 # WB97XD/6-311G SCF=XQC FORCE nosym pop=full guess=read
 -------------------------------------------------------

 -----------
 MD Step 999
 -----------
 Symbolic Z-matrix:
 Charge =  0 Multiplicity = 1

                          Input orientation:
 ---------------------------------------------------------------------
 Center     Atomic      Atomic             Coordinates (Angstroms)
 Number     Number       Type             X           Y           Z
 ---------------------------------------------------------------------
      1          6           0       -0.336822   -0.581729    0.000812
      2          1           0        0.235069   -1.522870    0.010357
      3          1           0       -1.425456   -0.585118    0.009665
      4          6           0        0.332140    0.576817    0.000404
      5          1           0       -0.141919    1.568208    0.007741
      6          1           0        1.438674    0.648866    0.008326
 ---------------------------------------------------------------------

 SCF Done:  E(RwB97XD) =  -78.5556151636     A.U. after    8 cycles

 Alpha  occ. eigenvalues --  -10.28944 -10.28855  -0.86389  -0.67260  -0.55957
 Alpha  occ. eigenvalues --   -0.50933  -0.43632  -0.35691
 Alpha virt. eigenvalues --    0.08010   0.14097   0.16489   0.17008   0.24084
 Alpha virt. eigenvalues --    0.37089   0.39362   0.40173   0.46423   0.48861
 Alpha virt. eigenvalues --    0.49375   0.59110   0.66576   0.69148   0.77363

 Mulliken charges:
               1
     1  C   -0.339125
     2  H    0.173192
     3  H    0.175678
     4  C   -0.347669
     5  H    0.169847
     6  H    0.168077
 Sum of Mulliken charges =   0.00000

 Dipole moment (field-independent basis, Debye):
    X=              0.0118    Y=              0.0331    Z=              0.0280  Tot=              0.0450
 Quadrupole moment (field-independent basis, Debye-Ang):
   XX=            -12.1988   YY=            -12.2155   ZZ=            -15.6705
   XY=              0.0188   XZ=             -0.0005   YZ=             -0.0037

 Normal termination of Gaussian 16 at Wed Jan 11 18:35:32 2023.
