 Gaussian 16, Revision C.01,
 Gaussian 16:  ES64L-G16RevC.01  3-Jul-2019

 -------------------------------------------------------
 # WB97XD/6-311G SCF=XQC FORCE nosym pop=full guess=read
 -------------------------------------------------------

 ------------
 MD Step 1000
 ------------
 Symbolic Z-matrix:
 Charge =  0 Multiplicity = 1

                          Input orientation:
 ---------------------------------------------------------------------
 Center     Atomic      Atomic             Coordinates (Angstroms)
 Number     Number       Type             X           Y           Z
 ---------------------------------------------------------------------
      1          6           0       -0.337162   -0.582897    0.003524
      2          1           0        0.224789   -1.526338   -0.008388
      3          1           0       -1.421553   -0.581738   -0.008520
      4          6           0        0.332377    0.576908    0.002511
      5          1           0       -0.154769    1.564983   -0.010292
      6          1           0        1.443191    0.649092   -0.010093
 ---------------------------------------------------------------------

 SCF Done:  E(RwB97XD) =  -78.5556845066     A.U. after    8 cycles

 Alpha  occ. eigenvalues --  -10.29010 -10.28816  -0.86366  -0.67237  -0.55982
 Alpha  occ. eigenvalues --   -0.50882  -0.43685  -0.35666
 Alpha virt. eigenvalues --    0.07981   0.14091   0.16492   0.17023   0.24070
 Alpha virt. eigenvalues --    0.37178   0.39405   0.39977   0.46432   0.48843
 Alpha virt. eigenvalues --    0.49391   0.59096   0.66593   0.69168   0.77289

 Mulliken charges:
               1
     1  C   -0.339460
     2  H    0.173650
     3  H    0.175483
     4  C   -0.347103
     5  H    0.169276
     6  H    0.168156
 Sum of Mulliken charges =  -0.00000

 Dipole moment (field-independent basis, Debye):
    X=              0.0033    Y=              0.0269    Z=             -0.0410  Tot=              0.0491
 Quadrupole moment (field-independent basis, Debye-Ang):
   XX=            -12.1982   YY=            -12.2180   ZZ=            -15.6752
   XY=              0.0061   XZ=             -0.0011   YZ=             -0.0021

 Normal termination of Gaussian 16 at Wed Jan 11 16:53:36 2023.
