 Gaussian 16, Revision C.01,
 Gaussian 16:  ES64L-G16RevC.01  3-Jul-2019

 -------------------------------------------------------
 # WB97XD/6-311G SCF=XQC FORCE nosym pop=full guess=read
 -------------------------------------------------------

 ------------
 MD Step 1000
 ------------
 Symbolic Z-matrix:
 Charge =  0 Multiplicity = 1

                          Input orientation:
 ---------------------------------------------------------------------
 Center     Atomic      Atomic             Coordinates (Angstroms)
 Number     Number       Type             X           Y           Z
 ---------------------------------------------------------------------
      1          6           0       -0.335365   -0.581740    0.006909
      2          1           0        0.206938   -1.532457   -0.025047
      3          1           0       -1.422683   -0.587688   -0.025933
      4          6           0        0.334174    0.577997    0.005530
      5          1           0       -0.172449    1.561485   -0.028359
      6          1           0        1.443763    0.644611   -0.027519
 ---------------------------------------------------------------------

 SCF Done:  E(RwB97XD) =  -78.5558804788     A.U. after    8 cycles

 Alpha  occ. eigenvalues --  -10.29075 -10.28802  -0.86353  -0.67205  -0.55916
 Alpha  occ. eigenvalues --   -0.50911  -0.43684  -0.35668
 Alpha virt. eigenvalues --    0.07955   0.14088   0.16461   0.17014   0.24076
 Alpha virt. eigenvalues --    0.37502   0.39329   0.39700   0.46429   0.48785
 Alpha virt. eigenvalues --    0.49389   0.59093   0.66552   0.69075   0.77240

 Mulliken charges:
               1
     1  C   -0.339969
     2  H    0.173253
     3  H    0.173977
     4  C   -0.345186
     5  H    0.168746
     6  H    0.169179
 Sum of Mulliken charges =  -0.00000

 Dipole moment (field-independent basis, Debye):
    X=             -0.0007    Y=              0.0134    Z=             -0.1092  Tot=              0.1100
 Quadrupole moment (field-independent basis, Debye-Ang):
   XX=            -12.2034   YY=            -12.2199   ZZ=            -15.6749
   XY=              0.0084   XZ=             -0.0002   YZ=             -0.0037

 Normal termination of Gaussian 16 at Wed Jan 11 18:44:34 2023.
