 Gaussian 16, Revision C.01,
 Gaussian 16:  ES64L-G16RevC.01  3-Jul-2019

 -------------------------------------------------------
 # WB97XD/6-311G SCF=XQC FORCE nosym pop=full guess=read
 -------------------------------------------------------

 -----------
 MD Step 999
 -----------
 Symbolic Z-matrix:
 Charge =  0 Multiplicity = 1

                          Input orientation:
 ---------------------------------------------------------------------
 Center     Atomic      Atomic             Coordinates (Angstroms)
 Number     Number       Type             X           Y           Z
 ---------------------------------------------------------------------
      1          6           0       -0.336042   -0.581605    0.005545
      2          1           0        0.219351   -1.526731   -0.015545
      3          1           0       -1.420997   -0.586128   -0.016269
      4          6           0        0.333126    0.576827    0.004323
      5          1           0       -0.159817    1.571327   -0.018457
      6          1           0        1.445928    0.648169   -0.017605
 ---------------------------------------------------------------------

 SCF Done:  E(RwB97XD) =  -78.5555356663     A.U. after    8 cycles

 Alpha  occ. eigenvalues --  -10.29112 -10.28798  -0.86374  -0.67172  -0.55910
 Alpha  occ. eigenvalues --   -0.50935  -0.43599  -0.35697
 Alpha virt. eigenvalues --    0.07995   0.14074   0.16430   0.16976   0.24061
 Alpha virt. eigenvalues --    0.37341   0.39272   0.39917   0.46310   0.48779
 Alpha virt. eigenvalues --    0.49367   0.59097   0.66516   0.69030   0.77182

 Mulliken charges:
               1
     1  C   -0.339394
     2  H    0.173565
     3  H    0.175290
     4  C   -0.346257
     5  H    0.168526
     6  H    0.168271
 Sum of Mulliken charges =   0.00000

 Dipole moment (field-independent basis, Debye):
    X=              0.0030    Y=              0.0175    Z=             -0.0726  Tot=              0.0747
 Quadrupole moment (field-independent basis, Debye-Ang):
   XX=            -12.2049   YY=            -12.2189   ZZ=            -15.6793
   XY=              0.0162   XZ=             -0.0004   YZ=             -0.0030

 Normal termination of Gaussian 16 at Wed Jan 11 18:38:41 2023.
