 Gaussian 16, Revision C.01,
 Gaussian 16:  ES64L-G16RevC.01  3-Jul-2019

 -------------------------------------------------------
 # WB97XD/6-311G SCF=XQC FORCE nosym pop=full guess=read
 -------------------------------------------------------

 -----------
 MD Step 999
 -----------
 Symbolic Z-matrix:
 Charge =  0 Multiplicity = 1

                          Input orientation:
 ---------------------------------------------------------------------
 Center     Atomic      Atomic             Coordinates (Angstroms)
 Number     Number       Type             X           Y           Z
 ---------------------------------------------------------------------
      1          6           0       -0.336901   -0.582529    0.004165
      2          1           0        0.233144   -1.525324   -0.006055
      3          1           0       -1.423664   -0.575234   -0.006674
      4          6           0        0.332415    0.576276    0.002751
      5          1           0       -0.143752    1.567697   -0.009149
      6          1           0        1.439733    0.659386   -0.008539
 ---------------------------------------------------------------------

 SCF Done:  E(RwB97XD) =  -78.5553342708     A.U. after    8 cycles

 Alpha  occ. eigenvalues --  -10.28962 -10.28867  -0.86382  -0.67262  -0.55955
 Alpha  occ. eigenvalues --   -0.50927  -0.43612  -0.35686
 Alpha virt. eigenvalues --    0.07998   0.14093   0.16483   0.16994   0.24076
 Alpha virt. eigenvalues --    0.36980   0.39345   0.40278   0.46401   0.48867
 Alpha virt. eigenvalues --    0.49378   0.59102   0.66572   0.69134   0.77335

 Mulliken charges:
               1
     1  C   -0.339037
     2  H    0.173941
     3  H    0.175895
     4  C   -0.348372
     5  H    0.169307
     6  H    0.168266
 Sum of Mulliken charges =  -0.00000

 Dipole moment (field-independent basis, Debye):
    X=              0.0095    Y=              0.0375    Z=             -0.0367  Tot=              0.0533
 Quadrupole moment (field-independent basis, Debye-Ang):
   XX=            -12.2032   YY=            -12.2128   ZZ=            -15.6736
   XY=              0.0191   XZ=             -0.0009   YZ=             -0.0034

 Normal termination of Gaussian 16 at Wed Jan 11 16:36:18 2023.
