 Gaussian 16, Revision C.01,
 Gaussian 16:  ES64L-G16RevC.01  3-Jul-2019

 -------------------------------------------------------
 # WB97XD/6-311G SCF=XQC FORCE nosym pop=full guess=read
 -------------------------------------------------------

 ------------
 MD Step 1000
 ------------
 Symbolic Z-matrix:
 Charge =  0 Multiplicity = 1

                          Input orientation:
 ---------------------------------------------------------------------
 Center     Atomic      Atomic             Coordinates (Angstroms)
 Number     Number       Type             X           Y           Z
 ---------------------------------------------------------------------
      1          6           0       -0.336057   -0.580810    0.004662
      2          1           0        0.215722   -1.533081   -0.011611
      3          1           0       -1.420732   -0.595359   -0.011957
      4          6           0        0.333998    0.579253    0.004094
      5          1           0       -0.163504    1.561939   -0.013979
      6          1           0        1.446285    0.638303   -0.013531
 ---------------------------------------------------------------------

 SCF Done:  E(RwB97XD) =  -78.5560236030     A.U. after    8 cycles

 Alpha  occ. eigenvalues --  -10.29051 -10.28833  -0.86333  -0.67222  -0.55911
 Alpha  occ. eigenvalues --   -0.50904  -0.43699  -0.35657
 Alpha virt. eigenvalues --    0.07964   0.14087   0.16476   0.17007   0.24069
 Alpha virt. eigenvalues --    0.37483   0.39324   0.39712   0.46439   0.48736
 Alpha virt. eigenvalues --    0.49395   0.59085   0.66574   0.69064   0.77270

 Mulliken charges:
               1
     1  C   -0.340120
     2  H    0.172320
     3  H    0.174636
     4  C   -0.345173
     5  H    0.169748
     6  H    0.168590
 Sum of Mulliken charges =   0.00000

 Dipole moment (field-independent basis, Debye):
    X=             -0.0035    Y=              0.0172    Z=             -0.0569  Tot=              0.0595
 Quadrupole moment (field-independent basis, Debye-Ang):
   XX=            -12.1977   YY=            -12.2156   ZZ=            -15.6796
   XY=              0.0127   XZ=             -0.0014   YZ=             -0.0032

 Normal termination of Gaussian 16 at Wed Jan 11 18:55:01 2023.
