 Gaussian 16, Revision C.01,
 Gaussian 16:  ES64L-G16RevC.01  3-Jul-2019

 -------------------------------------------------------
 # WB97XD/6-311G SCF=XQC FORCE nosym pop=full guess=read
 -------------------------------------------------------

 -----------
 MD Step 999
 -----------
 Symbolic Z-matrix:
 Charge =  0 Multiplicity = 1

                          Input orientation:
 ---------------------------------------------------------------------
 Center     Atomic      Atomic             Coordinates (Angstroms)
 Number     Number       Type             X           Y           Z
 ---------------------------------------------------------------------
      1          6           0       -0.336126   -0.581327    0.005894
      2          1           0        0.212713   -1.526103   -0.020608
      3          1           0       -1.416178   -0.591333   -0.021139
      4          6           0        0.332200    0.576260    0.004590
      5          1           0       -0.163268    1.569527   -0.023655
      6          1           0        1.450174    0.644940   -0.022861
 ---------------------------------------------------------------------

 SCF Done:  E(RwB97XD) =  -78.5554982866     A.U. after    8 cycles

 Alpha  occ. eigenvalues --  -10.29153 -10.28695  -0.86406  -0.67193  -0.55919
 Alpha  occ. eigenvalues --   -0.50988  -0.43585  -0.35716
 Alpha virt. eigenvalues --    0.08012   0.14087   0.16439   0.16994   0.24072
 Alpha virt. eigenvalues --    0.37528   0.39240   0.39857   0.46282   0.48850
 Alpha virt. eigenvalues --    0.49358   0.59113   0.66497   0.69109   0.77148

 Mulliken charges:
               1
     1  C   -0.339486
     2  H    0.173517
     3  H    0.175344
     4  C   -0.345625
     5  H    0.168541
     6  H    0.167709
 Sum of Mulliken charges =  -0.00000

 Dipole moment (field-independent basis, Debye):
    X=             -0.0043    Y=              0.0114    Z=             -0.0904  Tot=              0.0912
 Quadrupole moment (field-independent basis, Debye-Ang):
   XX=            -12.2103   YY=            -12.2121   ZZ=            -15.6698
   XY=              0.0224   XZ=             -0.0008   YZ=             -0.0031

 Normal termination of Gaussian 16 at Wed Jan 11 18:39:34 2023.
