 Gaussian 16, Revision C.01,
 Gaussian 16:  ES64L-G16RevC.01  3-Jul-2019

 -------------------------------------------------------
 # WB97XD/6-311G SCF=XQC FORCE nosym pop=full guess=read
 -------------------------------------------------------

 -----------
 MD Step 999
 -----------
 Symbolic Z-matrix:
 Charge =  0 Multiplicity = 1

                          Input orientation:
 ---------------------------------------------------------------------
 Center     Atomic      Atomic             Coordinates (Angstroms)
 Number     Number       Type             X           Y           Z
 ---------------------------------------------------------------------
      1          6           0       -0.335995   -0.580551    0.008952
      2          1           0        0.223751   -1.530287   -0.030643
      3          1           0       -1.421939   -0.587792   -0.032984
      4          6           0        0.332315    0.576679    0.006464
      5          1           0       -0.154706    1.565304   -0.037514
      6          1           0        1.444041    0.646214   -0.035257
 ---------------------------------------------------------------------

 SCF Done:  E(RwB97XD) =  -78.5553430376     A.U. after    8 cycles

 Alpha  occ. eigenvalues --  -10.29024 -10.28855  -0.86410  -0.67175  -0.55891
 Alpha  occ. eigenvalues --   -0.50969  -0.43563  -0.35724
 Alpha virt. eigenvalues --    0.07992   0.14071   0.16420   0.16982   0.24084
 Alpha virt. eigenvalues --    0.37357   0.39250   0.39981   0.46347   0.48820
 Alpha virt. eigenvalues --    0.49352   0.59116   0.66489   0.68995   0.77262

 Mulliken charges:
               1
     1  C   -0.339091
     2  H    0.172678
     3  H    0.174981
     4  C   -0.346091
     5  H    0.169398
     6  H    0.168124
 Sum of Mulliken charges =   0.00000

 Dipole moment (field-independent basis, Debye):
    X=              0.0018    Y=              0.0254    Z=             -0.1384  Tot=              0.1407
 Quadrupole moment (field-independent basis, Debye-Ang):
   XX=            -12.2125   YY=            -12.2249   ZZ=            -15.6690
   XY=              0.0158   XZ=             -0.0003   YZ=             -0.0074

 Normal termination of Gaussian 16 at Wed Jan 11 19:46:00 2023.
