 Gaussian 16, Revision C.01,
 Gaussian 16:  ES64L-G16RevC.01  3-Jul-2019

 ----------------------------------------------------------------------
 # BLYP/STO-3G SCF=XQC TD=(singlets,nstates=2,root=1) FORCE nosym pop=f
 ull guess=read
 ----------------------------------------------------------------------

 ---------
 MD Step 4
 ---------
 Symbolic Z-matrix:
 Charge =  0 Multiplicity = 1

                          Input orientation:
 ---------------------------------------------------------------------
 Center     Atomic      Atomic             Coordinates (Angstroms)
 Number     Number       Type             X           Y           Z
 ---------------------------------------------------------------------
      1          3           0        0.006104    0.006103    0.024362
      2          1           0        0.015842    0.015842    2.889986
 ---------------------------------------------------------------------

 SCF Done:  E(RB-LYP) =  -7.84959979500     A.U. after    1 cycles

 Excitation energies and oscillator strengths:

 Excited state symmetry could not be determined.
 Excited State   1:      Singlet-?Sym    2.3441 eV  528.91 nm  f=0.1374  <S**2>=0.000
       2 ->  3         0.70353
       2 ->  6        -0.22075
       2 <-  3        -0.19339
 This state for optimization and/or second-order correction.
 Total Energy, E(TD-HF/TD-DFT) =  -7.76345450025
 Copying the excited state density for this state as the 1-particle RhoCI density.

 Excited state symmetry could not be determined.
 Excited State   2:      Singlet-?Sym    3.4064 eV  363.97 nm  f=0.1994  <S**2>=0.000
       2 ->  4         0.70765

 Alpha  occ. eigenvalues --   -1.80423  -0.09980
 Alpha virt. eigenvalues --   -0.05081   0.01591   0.01591   0.08299

 Mulliken charges:
               1
     1  Li   0.043419
     2  H   -0.043419
 Sum of Mulliken charges =   0.00000

 Dipole moment (field-independent basis, Debye):
    X=             -0.0142    Y=             -0.0142    Z=             -4.1890  Tot=              4.1890
 Quadrupole moment (field-independent basis, Debye-Ang):
   XX=             -6.0532   YY=             -6.0532   ZZ=            -10.6345
   XY=             -0.0002   XZ=             -0.0408   YZ=             -0.0408

 Normal termination of Gaussian 16 at Thu Dec 29 00:17:12 2022.
