 Gaussian 16, Revision C.01,
 Gaussian 16:  ES64L-G16RevC.01  3-Jul-2019

 ----------------------------------------------------------------------
 # BLYP/STO-3G SCF=XQC TD=(singlets,nstates=2,root=1) FORCE nosym pop=f
 ull guess=read
 ----------------------------------------------------------------------

 -----------
 MD Step 999
 -----------
 Symbolic Z-matrix:
 Charge =  0 Multiplicity = 1

                          Input orientation:
 ---------------------------------------------------------------------
 Center     Atomic      Atomic             Coordinates (Angstroms)
 Number     Number       Type             X           Y           Z
 ---------------------------------------------------------------------
      1          3           0        2.057847    1.828409    2.284877
      2          1           0        0.279387    1.859669    1.713671
 ---------------------------------------------------------------------

 SCF Done:  E(RB-LYP) =  -7.93129364100     A.U. after    1 cycles

 Excitation energies and oscillator strengths:

 Excited state symmetry could not be determined.
 Excited State   1:      Singlet-?Sym    3.0995 eV  400.02 nm  f=0.0609  <S**2>=0.000
       2 ->  3         0.70517
 This state for optimization and/or second-order correction.
 Total Energy, E(TD-HF/TD-DFT) =  -7.81739064311
 Copying the excited state density for this state as the 1-particle RhoCI density.

 Excited state symmetry could not be determined.
 Excited State   2:      Singlet-?Sym    4.6481 eV  266.74 nm  f=0.2291  <S**2>=0.000
       2 ->  4         0.63066
       2 ->  5        -0.32100

 Alpha  occ. eigenvalues --   -1.78178  -0.12677
 Alpha virt. eigenvalues --   -0.03076   0.03111   0.03111   0.26291

 Mulliken charges:
               1
     1  Li   0.003493
     2  H   -0.003493
 Sum of Mulliken charges =   0.00000

 Dipole moment (field-independent basis, Debye):
    X=              4.4612    Y=             -0.0784    Z=              1.4328  Tot=              4.6863
 Quadrupole moment (field-independent basis, Debye-Ang):
   XX=              9.7921   YY=             -5.8359   ZZ=              0.6879
   XY=              8.0485   XZ=             12.1717   YZ=              2.4577

 Normal termination of Gaussian 16 at Thu Dec 29 05:02:41 2022.
