 Gaussian 16, Revision C.01,
 Gaussian 16:  ES64L-G16RevC.01  3-Jul-2019

 ----------------------------------
 # BLYP/sto-3g FORCE nosym pop=full
 ----------------------------------

 ---------
 MD Step 1
 ---------
 Symbolic Z-matrix:
 Charge =  0 Multiplicity = 1

                          Input orientation:
 ---------------------------------------------------------------------
 Center     Atomic      Atomic             Coordinates (Angstroms)
 Number     Number       Type             X           Y           Z
 ---------------------------------------------------------------------
      1          3           0        0.000000    0.000000    0.000000
      2          1           0        0.000000    0.000000    1.000000
 ---------------------------------------------------------------------

 SCF Done:  E(RB-LYP) =  -7.85074979042     A.U. after    8 cycles

 Alpha  occ. eigenvalues --   -1.78719  -0.15069
 Alpha virt. eigenvalues --   -0.03226   0.03062   0.03062   0.40426

 Mulliken charges:
               1
     1  Li   0.019558
     2  H   -0.019558
 Sum of Mulliken charges =   0.00000

 Dipole moment (field-independent basis, Debye):
    X=             -0.0000    Y=              0.0000    Z=             -4.7897  Tot=              4.7897
 Quadrupole moment (field-independent basis, Debye-Ang):
   XX=             -4.9200   YY=             -4.9200   ZZ=             -8.5882
   XY=              0.0000   XZ=             -0.0000   YZ=              0.0000

 Normal termination of Gaussian 16 at Wed Dec 28 17:08:34 2022.
