 Gaussian 16, Revision C.01,
 Gaussian 16:  ES64L-G16RevC.01  3-Jul-2019

 -------------------------------------------------------
 # WB97XD/6-311G SCF=XQC FORCE nosym pop=full guess=read
 -------------------------------------------------------

 -----------
 MD Step 335
 -----------
 Symbolic Z-matrix:
 Charge =  0 Multiplicity = 1

                          Input orientation:
 ---------------------------------------------------------------------
 Center     Atomic      Atomic             Coordinates (Angstroms)
 Number     Number       Type             X           Y           Z
 ---------------------------------------------------------------------
      1          6           0       -0.356869   -0.616138    0.004032
      2          1           0        0.315853   -1.331477   -0.001124
      3          1           0       -1.323706   -0.425703   -0.026423
      4          6           0        0.318753    0.557895   -0.001519
      5          1           0       -0.099249    1.699335    0.027807
      6          1           0        1.568982    0.756442   -0.025279
 ---------------------------------------------------------------------

 SCF Done:  E(RwB97XD) =  -78.4966015944     A.U. after    8 cycles

 Alpha  occ. eigenvalues --  -10.31658 -10.27499  -0.87710  -0.65955  -0.59786
 Alpha  occ. eigenvalues --   -0.49142  -0.41925  -0.35856
 Alpha virt. eigenvalues --    0.07476   0.12560   0.15928   0.17126   0.22607
 Alpha virt. eigenvalues --    0.32708   0.39718   0.42431   0.43042   0.49212
 Alpha virt. eigenvalues --    0.51307   0.58662   0.65342   0.72144   0.74639

 Mulliken charges:
               1
     1  C   -0.366879
     2  H    0.220966
     3  H    0.221230
     4  C   -0.389943
     5  H    0.162355
     6  H    0.152271
 Sum of Mulliken charges =  -0.00000

 Dipole moment (field-independent basis, Debye):
    X=             -0.0153    Y=              0.0594    Z=             -0.0327  Tot=              0.0696
 Quadrupole moment (field-independent basis, Debye-Ang):
   XX=            -12.3125   YY=            -12.5475   ZZ=            -15.8122
   XY=             -0.1962   XZ=              0.0165   YZ=              0.0438

 Normal termination of Gaussian 16 at Mon Jan  9 18:37:15 2023.
