 Gaussian 16, Revision C.01,
 Gaussian 16:  ES64L-G16RevC.01  3-Jul-2019

 ------------------------------------------
 # BLYP/3-21G* SCF=XQC FORCE nosym pop=full
 ------------------------------------------

 -----------
 MD Step 999
 -----------
 Symbolic Z-matrix:
 Charge =  0 Multiplicity = 1

                          Input orientation:
 ---------------------------------------------------------------------
 Center     Atomic      Atomic             Coordinates (Angstroms)
 Number     Number       Type             X           Y           Z
 ---------------------------------------------------------------------
      1          3           0        2.213375    2.210083    1.690662
      2          9           0        0.664993    0.666123    3.855904
 ---------------------------------------------------------------------

 SCF Done:  E(RB-LYP) =  -106.664490497     A.U. after   16 cycles

 Alpha  occ. eigenvalues --  -23.95333  -1.95126  -0.80826  -0.14557  -0.11829
 Alpha  occ. eigenvalues --   -0.11829
 Alpha virt. eigenvalues --   -0.10827  -0.04415  -0.04415  -0.00466   0.06758
 Alpha virt. eigenvalues --    0.07063   0.07064   0.10872   1.90341   1.90341
 Alpha virt. eigenvalues --    1.91168   3.04091

 Mulliken charges:
               1
     1  Li   0.344666
     2  F   -0.344666
 Sum of Mulliken charges =  -0.00000

 Dipole moment (field-independent basis, Debye):
    X=              3.6030    Y=              3.5927    Z=             -5.0384  Tot=              7.1606
 Quadrupole moment (field-independent basis, Debye-Ang):
   XX=              0.8021   YY=              0.7572   ZZ=            -36.2501
   XY=             11.6711   XZ=              0.8910   YZ=              0.8732

 Normal termination of Gaussian 16 at Thu Dec 29 13:10:06 2022.
