 Gaussian 16, Revision C.01,
 Gaussian 16:  ES64L-G16RevC.01  3-Jul-2019

 ------------------------------------------
 # BLYP/STO-3G SCF=XQC FORCE nosym pop=full
 ------------------------------------------

 ------------
 MD Step 1000
 ------------
 Symbolic Z-matrix:
 Charge =  0 Multiplicity = 1

                          Input orientation:
 ---------------------------------------------------------------------
 Center     Atomic      Atomic             Coordinates (Angstroms)
 Number     Number       Type             X           Y           Z
 ---------------------------------------------------------------------
      1          3           0        1.763091    1.709812    2.342731
      2          1           0        2.324286    2.691750    1.329819
 ---------------------------------------------------------------------

 SCF Done:  E(RB-LYP) =  -7.94470553247     A.U. after    9 cycles

 Alpha  occ. eigenvalues --   -1.76928  -0.14211
 Alpha virt. eigenvalues --   -0.02613   0.03414   0.03415   0.35412

 Mulliken charges:
               1
     1  Li  -0.007152
     2  H    0.007152
 Sum of Mulliken charges =  -0.00000

 Dipole moment (field-independent basis, Debye):
    X=             -1.7422    Y=             -3.0483    Z=              3.1445  Tot=              4.7133
 Quadrupole moment (field-independent basis, Debye-Ang):
   XX=            -11.9249   YY=            -17.1355   ZZ=              7.9334
   XY=             -9.1423   XZ=              2.2765   YZ=             -0.3408

 Normal termination of Gaussian 16 at Thu Dec 29 05:44:38 2022.
