 Gaussian 16, Revision C.01,
 Gaussian 16:  ES64L-G16RevC.01  3-Jul-2019

 -------------------------------------------------------
 # WB97XD/6-311G SCF=XQC FORCE nosym pop=full guess=read
 -------------------------------------------------------

 ------------
 MD Step 1000
 ------------
 Symbolic Z-matrix:
 Charge =  0 Multiplicity = 1

                          Input orientation:
 ---------------------------------------------------------------------
 Center     Atomic      Atomic             Coordinates (Angstroms)
 Number     Number       Type             X           Y           Z
 ---------------------------------------------------------------------
      1          6           0       -0.336605   -0.582087    0.005622
      2          1           0        0.225266   -1.527614   -0.016563
      3          1           0       -1.423025   -0.585019   -0.018075
      4          6           0        0.332931    0.577781    0.004640
      5          1           0       -0.153896    1.564487   -0.021231
      6          1           0        1.442093    0.646111   -0.019746
 ---------------------------------------------------------------------

 SCF Done:  E(RwB97XD) =  -78.5557082125     A.U. after    8 cycles

 Alpha  occ. eigenvalues --  -10.28994 -10.28851  -0.86359  -0.67235  -0.55955
 Alpha  occ. eigenvalues --   -0.50890  -0.43682  -0.35665
 Alpha virt. eigenvalues --    0.07967   0.14088   0.16485   0.17018   0.24075
 Alpha virt. eigenvalues --    0.37225   0.39379   0.39946   0.46448   0.48821
 Alpha virt. eigenvalues --    0.49391   0.59094   0.66581   0.69122   0.77313

 Mulliken charges:
               1
     1  C   -0.339511
     2  H    0.173176
     3  H    0.175153
     4  C   -0.346726
     5  H    0.169588
     6  H    0.168319
 Sum of Mulliken charges =   0.00000

 Dipole moment (field-independent basis, Debye):
    X=              0.0044    Y=              0.0266    Z=             -0.0798  Tot=              0.0842
 Quadrupole moment (field-independent basis, Debye-Ang):
   XX=            -12.2002   YY=            -12.2193   ZZ=            -15.6749
   XY=              0.0073   XZ=             -0.0007   YZ=             -0.0060

 Normal termination of Gaussian 16 at Wed Jan 11 18:36:55 2023.
