 Gaussian 16, Revision C.01,
 Gaussian 16:  ES64L-G16RevC.01  3-Jul-2019

 ----------------------------------------------------------------------
 # BLYP/STO-3G SCF=XQC TD=(read,singlets,nstates=4,root=3) FORCE nosym
 pop=full guess=read
 ----------------------------------------------------------------------

 ------------
 MD Step 1000
 ------------
 Symbolic Z-matrix:
 Charge =  0 Multiplicity = 1

                          Input orientation:
 ---------------------------------------------------------------------
 Center     Atomic      Atomic             Coordinates (Angstroms)
 Number     Number       Type             X           Y           Z
 ---------------------------------------------------------------------
      1          3           0        1.763091    1.709812    2.342731
      2          1           0        2.324286    2.691750    1.329819
 ---------------------------------------------------------------------

 SCF Done:  E(RB-LYP) =  -7.94470553246     A.U. after    1 cycles

 Excitation energies and oscillator strengths:

 Excited state symmetry could not be determined.
 Excited State   1:      Singlet-?Sym    3.4241 eV  362.09 nm  f=0.0344  <S**2>=0.000
       2 ->  3         0.70542

 Excited state symmetry could not be determined.
 Excited State   2:      Singlet-?Sym    5.2286 eV  237.13 nm  f=0.2407  <S**2>=0.000
       2 ->  4         0.70392

 Excited state symmetry could not be determined.
 Excited State   3:      Singlet-?Sym    5.2289 eV  237.11 nm  f=0.2407  <S**2>=0.000
       2 ->  5         0.70392
 This state for optimization and/or second-order correction.
 Total Energy, E(TD-HF/TD-DFT) =  -7.75254583794
 Copying the excited state density for this state as the 1-particle RhoCI density.

 Excited state symmetry could not be determined.
 Excited State   4:      Singlet-?Sym   17.0983 eV   72.51 nm  f=0.2374  <S**2>=0.000
       2 ->  6         0.70975

 Alpha  occ. eigenvalues --   -1.76928  -0.14211
 Alpha virt. eigenvalues --   -0.02613   0.03414   0.03415   0.35412

 Mulliken charges:
               1
     1  Li  -0.007152
     2  H    0.007152
 Sum of Mulliken charges =  -0.00000

 Dipole moment (field-independent basis, Debye):
    X=             -1.7422    Y=             -3.0483    Z=              3.1445  Tot=              4.7133
 Quadrupole moment (field-independent basis, Debye-Ang):
   XX=            -11.9249   YY=            -17.1355   ZZ=              7.9334
   XY=             -9.1423   XZ=              2.2765   YZ=             -0.3408

 Normal termination of Gaussian 16 at Thu Dec 29 05:44:49 2022.
