 Gaussian 16, Revision C.01,
 Gaussian 16:  ES64L-G16RevC.01  3-Jul-2019

 -------------------------------------------------------
 # WB97XD/6-311G SCF=XQC FORCE nosym pop=full guess=read
 -------------------------------------------------------

 -----------
 MD Step 999
 -----------
 Symbolic Z-matrix:
 Charge =  0 Multiplicity = 1

                          Input orientation:
 ---------------------------------------------------------------------
 Center     Atomic      Atomic             Coordinates (Angstroms)
 Number     Number       Type             X           Y           Z
 ---------------------------------------------------------------------
      1          6           0       -0.335917   -0.580970    0.006677
      2          1           0        0.214014   -1.529568   -0.023491
      3          1           0       -1.420800   -0.592384   -0.024846
      4          6           0        0.332759    0.576843    0.004950
      5          1           0       -0.163520    1.565842   -0.027158
      6          1           0        1.445204    0.642581   -0.025759
 ---------------------------------------------------------------------

 SCF Done:  E(RwB97XD) =  -78.5557481100     A.U. after    8 cycles

 Alpha  occ. eigenvalues --  -10.29074 -10.28780  -0.86393  -0.67194  -0.55902
 Alpha  occ. eigenvalues --   -0.50971  -0.43610  -0.35708
 Alpha virt. eigenvalues --    0.08000   0.14089   0.16441   0.16997   0.24080
 Alpha virt. eigenvalues --    0.37513   0.39267   0.39822   0.46350   0.48810
 Alpha virt. eigenvalues --    0.49363   0.59111   0.66520   0.69059   0.77228

 Mulliken charges:
               1
     1  C   -0.339560
     2  H    0.172898
     3  H    0.174699
     4  C   -0.345381
     5  H    0.168950
     6  H    0.168394
 Sum of Mulliken charges =  -0.00000

 Dipole moment (field-independent basis, Debye):
    X=             -0.0003    Y=              0.0150    Z=             -0.1031  Tot=              0.1042
 Quadrupole moment (field-independent basis, Debye-Ang):
   XX=            -12.2071   YY=            -12.2172   ZZ=            -15.6703
   XY=              0.0187   XZ=              0.0006   YZ=             -0.0032

 Normal termination of Gaussian 16 at Wed Jan 11 16:42:40 2023.
