 Gaussian 16, Revision C.01,
 Gaussian 16:  ES64L-G16RevC.01  3-Jul-2019

 -------------------------------------------------------
 # WB97XD/6-311G SCF=XQC FORCE nosym pop=full guess=read
 -------------------------------------------------------

 -----------
 MD Step 999
 -----------
 Symbolic Z-matrix:
 Charge =  0 Multiplicity = 1

                          Input orientation:
 ---------------------------------------------------------------------
 Center     Atomic      Atomic             Coordinates (Angstroms)
 Number     Number       Type             X           Y           Z
 ---------------------------------------------------------------------
      1          6           0       -0.337071   -0.583616    0.006473
      2          1           0        0.224509   -1.521357   -0.021296
      3          1           0       -1.421413   -0.576980   -0.021645
      4          6           0        0.332643    0.576048    0.004265
      5          1           0       -0.154662    1.571780   -0.023879
      6          1           0        1.442040    0.654470   -0.023403
 ---------------------------------------------------------------------

 SCF Done:  E(RwB97XD) =  -78.5552769632     A.U. after    8 cycles

 Alpha  occ. eigenvalues --  -10.29069 -10.28788  -0.86373  -0.67225  -0.55984
 Alpha  occ. eigenvalues --   -0.50891  -0.43644  -0.35671
 Alpha virt. eigenvalues --    0.07962   0.14087   0.16476   0.17012   0.24064
 Alpha virt. eigenvalues --    0.37107   0.39368   0.40079   0.46377   0.48885
 Alpha virt. eigenvalues --    0.49388   0.59092   0.66568   0.69154   0.77218

 Mulliken charges:
               1
     1  C   -0.339190
     2  H    0.174506
     3  H    0.175840
     4  C   -0.347797
     5  H    0.168338
     6  H    0.168302
 Sum of Mulliken charges =  -0.00000

 Dipole moment (field-independent basis, Debye):
    X=              0.0086    Y=              0.0241    Z=             -0.0928  Tot=              0.0963
 Quadrupole moment (field-independent basis, Debye-Ang):
   XX=            -12.2028   YY=            -12.2223   ZZ=            -15.6748
   XY=              0.0093   XZ=             -0.0004   YZ=             -0.0016

 Normal termination of Gaussian 16 at Wed Jan 11 19:45:11 2023.
