 Gaussian 16, Revision C.01,
 Gaussian 16:  ES64L-G16RevC.01  3-Jul-2019

 -------------------------------------------------------
 # WB97XD/6-311G SCF=XQC FORCE nosym pop=full guess=read
 -------------------------------------------------------

 -----------
 MD Step 999
 -----------
 Symbolic Z-matrix:
 Charge =  0 Multiplicity = 1

                          Input orientation:
 ---------------------------------------------------------------------
 Center     Atomic      Atomic             Coordinates (Angstroms)
 Number     Number       Type             X           Y           Z
 ---------------------------------------------------------------------
      1          6           0       -0.336703   -0.582515    0.004789
      2          1           0        0.224168   -1.525619   -0.012257
      3          1           0       -1.420454   -0.577509   -0.012713
      4          6           0        0.332353    0.575856    0.003223
      5          1           0       -0.151929    1.566905   -0.014308
      6          1           0        1.442510    0.658026   -0.013723
 ---------------------------------------------------------------------

 SCF Done:  E(RwB97XD) =  -78.5554866840     A.U. after    8 cycles

 Alpha  occ. eigenvalues --  -10.29005 -10.28798  -0.86396  -0.67255  -0.55962
 Alpha  occ. eigenvalues --   -0.50955  -0.43616  -0.35694
 Alpha virt. eigenvalues --    0.08004   0.14105   0.16484   0.17007   0.24078
 Alpha virt. eigenvalues --    0.37163   0.39326   0.40157   0.46375   0.48889
 Alpha virt. eigenvalues --    0.49374   0.59109   0.66576   0.69167   0.77283

 Mulliken charges:
               1
     1  C   -0.339107
     2  H    0.174046
     3  H    0.175664
     4  C   -0.347614
     5  H    0.168788
     6  H    0.168223
 Sum of Mulliken charges =   0.00000

 Dipole moment (field-independent basis, Debye):
    X=              0.0044    Y=              0.0296    Z=             -0.0573  Tot=              0.0646
 Quadrupole moment (field-independent basis, Debye-Ang):
   XX=            -12.2053   YY=            -12.2105   ZZ=            -15.6691
   XY=              0.0211   XZ=              0.0001   YZ=             -0.0014

 Normal termination of Gaussian 16 at Wed Jan 11 18:43:28 2023.
