 Gaussian 16, Revision C.01,
 Gaussian 16:  ES64L-G16RevC.01  3-Jul-2019

 -----------------------------------------------------------
 # WB97XD/6-311++G** SCF=XQC FORCE nosym pop=full guess=read
 -----------------------------------------------------------

 ---------
 MD Step 2
 ---------
 Symbolic Z-matrix:
 Charge =  0 Multiplicity = 1

                          Input orientation:
 ---------------------------------------------------------------------
 Center     Atomic      Atomic             Coordinates (Angstroms)
 Number     Number       Type             X           Y           Z
 ---------------------------------------------------------------------
      1          6           0       -0.337012   -0.586936    0.000727
      2          1           0        0.202045   -1.509662    0.006203
      3          1           0       -1.402217   -0.581377    0.006211
      4          6           0        0.338473    0.588393    0.000725
      5          1           0       -0.189623    1.522036    0.006208
      6          1           0        1.414518    0.593774    0.006216
 ---------------------------------------------------------------------

 SCF Done:  E(RwB97XD) =  -78.5788778338     A.U. after    9 cycles

 Alpha  occ. eigenvalues --  -10.28619 -10.28469  -0.86136  -0.67912  -0.56697
 Alpha  occ. eigenvalues --   -0.50130  -0.45016  -0.35507
 Alpha virt. eigenvalues --    0.05097   0.05913   0.06514   0.06627   0.08576
 Alpha virt. eigenvalues --    0.12538   0.13893   0.17230   0.17714   0.17920
 Alpha virt. eigenvalues --    0.19849   0.21435   0.22234   0.22623   0.24755

 Mulliken charges:
               1
     1  C   -0.259502
     2  H    0.130199
     3  H    0.129261
     4  C   -0.257644
     5  H    0.129815
     6  H    0.127870
 Sum of Mulliken charges =  -0.00000

 Dipole moment (field-independent basis, Debye):
    X=             -0.0001    Y=              0.0035    Z=              0.0176  Tot=              0.0179
 Quadrupole moment (field-independent basis, Debye-Ang):
   XX=            -12.1628   YY=            -12.2553   ZZ=            -15.8453
   XY=             -0.1063   XZ=              0.0000   YZ=              0.0000

 Normal termination of Gaussian 16 at Sat Jan 14 14:16:10 2023.
