 Gaussian 16, Revision C.01,
 Gaussian 16:  ES64L-G16RevC.01  3-Jul-2019

 -------------------------------------------------------
 # WB97XD/6-311G SCF=XQC FORCE nosym pop=full guess=read
 -------------------------------------------------------

 ------------
 MD Step 1000
 ------------
 Symbolic Z-matrix:
 Charge =  0 Multiplicity = 1

                          Input orientation:
 ---------------------------------------------------------------------
 Center     Atomic      Atomic             Coordinates (Angstroms)
 Number     Number       Type             X           Y           Z
 ---------------------------------------------------------------------
      1          6           0       -0.331996   -0.574682    0.003173
      2          1           0        0.204648   -1.538200   -0.001049
      3          1           0       -1.422672   -0.600326   -0.002430
      4          6           0        0.331146    0.573793    0.001672
      5          1           0       -0.160134    1.552111   -0.004654
      6          1           0        1.434407    0.643128   -0.003503
 ---------------------------------------------------------------------

 SCF Done:  E(RwB97XD) =  -78.5566020965     A.U. after    8 cycles

 Alpha  occ. eigenvalues --  -10.28770 -10.28673  -0.86622  -0.67267  -0.55882
 Alpha  occ. eigenvalues --   -0.51303  -0.43444  -0.35889
 Alpha virt. eigenvalues --    0.08259   0.14188   0.16449   0.17031   0.24176
 Alpha virt. eigenvalues --    0.38004   0.39163   0.40000   0.46272   0.49030
 Alpha virt. eigenvalues --    0.49254   0.59251   0.66503   0.69269   0.77412

 Mulliken charges:
               1
     1  C   -0.339047
     2  H    0.171024
     3  H    0.172696
     4  C   -0.343506
     5  H    0.169747
     6  H    0.169086
 Sum of Mulliken charges =   0.00000

 Dipole moment (field-independent basis, Debye):
    X=             -0.0003    Y=              0.0215    Z=             -0.0175  Tot=              0.0278
 Quadrupole moment (field-independent basis, Debye-Ang):
   XX=            -12.2216   YY=            -12.1829   ZZ=            -15.6214
   XY=              0.0580   XZ=              0.0005   YZ=             -0.0036

 Normal termination of Gaussian 16 at Thu Jan 12 13:56:41 2023.
