 Gaussian 16, Revision C.01,
 Gaussian 16:  ES64L-G16RevC.01  3-Jul-2019

 -------------------------------------------------------
 # WB97XD/6-311G SCF=XQC FORCE nosym pop=full guess=read
 -------------------------------------------------------

 -----------
 MD Step 999
 -----------
 Symbolic Z-matrix:
 Charge =  0 Multiplicity = 1

                          Input orientation:
 ---------------------------------------------------------------------
 Center     Atomic      Atomic             Coordinates (Angstroms)
 Number     Number       Type             X           Y           Z
 ---------------------------------------------------------------------
      1          6           0       -0.336964   -0.582735    0.005243
      2          1           0        0.224474   -1.524469   -0.014887
      3          1           0       -1.419480   -0.578630   -0.015139
      4          6           0        0.332245    0.575907    0.003584
      5          1           0       -0.155452    1.570695   -0.017238
      6          1           0        1.447833    0.654904   -0.016793
 ---------------------------------------------------------------------

 SCF Done:  E(RwB97XD) =  -78.5552046667     A.U. after    8 cycles

 Alpha  occ. eigenvalues --  -10.29112 -10.28789  -0.86383  -0.67176  -0.55952
 Alpha  occ. eigenvalues --   -0.50909  -0.43591  -0.35695
 Alpha virt. eigenvalues --    0.07993   0.14069   0.16439   0.16979   0.24054
 Alpha virt. eigenvalues --    0.37161   0.39308   0.40056   0.46300   0.48828
 Alpha virt. eigenvalues --    0.49369   0.59096   0.66523   0.69078   0.77173

 Mulliken charges:
               1
     1  C   -0.339162
     2  H    0.174229
     3  H    0.175982
     4  C   -0.347343
     5  H    0.168500
     6  H    0.167795
 Sum of Mulliken charges =  -0.00000

 Dipole moment (field-independent basis, Debye):
    X=              0.0016    Y=              0.0244    Z=             -0.0678  Tot=              0.0721
 Quadrupole moment (field-independent basis, Debye-Ang):
   XX=            -12.2048   YY=            -12.2216   ZZ=            -15.6795
   XY=              0.0118   XZ=             -0.0006   YZ=             -0.0019

 Normal termination of Gaussian 16 at Wed Jan 11 19:42:27 2023.
