 Gaussian 16, Revision C.01,
 Gaussian 16:  ES64L-G16RevC.01  3-Jul-2019

 -------------------------------------------------------
 # WB97XD/6-311G SCF=XQC FORCE nosym pop=full guess=read
 -------------------------------------------------------

 -----------
 MD Step 999
 -----------
 Symbolic Z-matrix:
 Charge =  0 Multiplicity = 1

                          Input orientation:
 ---------------------------------------------------------------------
 Center     Atomic      Atomic             Coordinates (Angstroms)
 Number     Number       Type             X           Y           Z
 ---------------------------------------------------------------------
      1          6           0       -0.336302   -0.581132    0.005719
      2          1           0        0.216447   -1.529523   -0.018440
      3          1           0       -1.418036   -0.589381   -0.018817
      4          6           0        0.332193    0.576297    0.003687
      5          1           0       -0.162097    1.567209   -0.019659
      6          1           0        1.448519    0.645157   -0.019294
 ---------------------------------------------------------------------

 SCF Done:  E(RwB97XD) =  -78.5555818950     A.U. after    8 cycles

 Alpha  occ. eigenvalues --  -10.29107 -10.28758  -0.86402  -0.67172  -0.55914
 Alpha  occ. eigenvalues --   -0.50963  -0.43587  -0.35718
 Alpha virt. eigenvalues --    0.08019   0.14078   0.16430   0.16985   0.24071
 Alpha virt. eigenvalues --    0.37458   0.39264   0.39862   0.46302   0.48805
 Alpha virt. eigenvalues --    0.49355   0.59113   0.66503   0.69060   0.77188

 Mulliken charges:
               1
     1  C   -0.339395
     2  H    0.173121
     3  H    0.175220
     4  C   -0.345710
     5  H    0.168824
     6  H    0.167939
 Sum of Mulliken charges =  -0.00000

 Dipole moment (field-independent basis, Debye):
    X=             -0.0036    Y=              0.0170    Z=             -0.0787  Tot=              0.0806
 Quadrupole moment (field-independent basis, Debye-Ang):
   XX=            -12.2071   YY=            -12.2172   ZZ=            -15.6733
   XY=              0.0170   XZ=              0.0009   YZ=              0.0008

 Normal termination of Gaussian 16 at Wed Jan 11 16:36:21 2023.
