 Gaussian 16, Revision C.01,
 Gaussian 16:  ES64L-G16RevC.01  3-Jul-2019

 -------------------------------------------------------
 # WB97XD/6-311G SCF=XQC FORCE nosym pop=full guess=read
 -------------------------------------------------------

 -----------
 MD Step 999
 -----------
 Symbolic Z-matrix:
 Charge =  0 Multiplicity = 1

                          Input orientation:
 ---------------------------------------------------------------------
 Center     Atomic      Atomic             Coordinates (Angstroms)
 Number     Number       Type             X           Y           Z
 ---------------------------------------------------------------------
      1          6           0       -0.336550   -0.582269    0.007697
      2          1           0        0.222712   -1.521171   -0.026336
      3          1           0       -1.421211   -0.585423   -0.028193
      4          6           0        0.332453    0.576405    0.005284
      5          1           0       -0.154040    1.568435   -0.031238
      6          1           0        1.440960    0.647643   -0.029305
 ---------------------------------------------------------------------

 SCF Done:  E(RwB97XD) =  -78.5555460894     A.U. after    8 cycles

 Alpha  occ. eigenvalues --  -10.29015 -10.28763  -0.86402  -0.67255  -0.55977
 Alpha  occ. eigenvalues --   -0.50945  -0.43650  -0.35688
 Alpha virt. eigenvalues --    0.07976   0.14109   0.16491   0.17037   0.24088
 Alpha virt. eigenvalues --    0.37286   0.39359   0.40014   0.46417   0.48932
 Alpha virt. eigenvalues --    0.49381   0.59113   0.66575   0.69199   0.77281

 Mulliken charges:
               1
     1  C   -0.339204
     2  H    0.173691
     3  H    0.175381
     4  C   -0.346968
     5  H    0.168884
     6  H    0.168217
 Sum of Mulliken charges =   0.00000

 Dipole moment (field-independent basis, Debye):
    X=              0.0076    Y=              0.0214    Z=             -0.1170  Tot=              0.1192
 Quadrupole moment (field-independent basis, Debye-Ang):
   XX=            -12.2042   YY=            -12.2199   ZZ=            -15.6631
   XY=              0.0155   XZ=              0.0010   YZ=             -0.0042

 Normal termination of Gaussian 16 at Wed Jan 11 19:42:31 2023.
