 Gaussian 16, Revision C.01,
 Gaussian 16:  ES64L-G16RevC.01  3-Jul-2019

 -------------------------------------------------------
 # WB97XD/6-311G SCF=XQC FORCE nosym pop=full guess=read
 -------------------------------------------------------

 ------------
 MD Step 1000
 ------------
 Symbolic Z-matrix:
 Charge =  0 Multiplicity = 1

                          Input orientation:
 ---------------------------------------------------------------------
 Center     Atomic      Atomic             Coordinates (Angstroms)
 Number     Number       Type             X           Y           Z
 ---------------------------------------------------------------------
      1          6           0       -0.337539   -0.584169    0.007796
      2          1           0        0.232813   -1.521273   -0.025256
      3          1           0       -1.425377   -0.572580   -0.026395
      4          6           0        0.333022    0.576653    0.004937
      5          1           0       -0.149002    1.569675   -0.028981
      6          1           0        1.438633    0.656970   -0.027853
 ---------------------------------------------------------------------

 SCF Done:  E(RwB97XD) =  -78.5550691249     A.U. after    8 cycles

 Alpha  occ. eigenvalues --  -10.29009 -10.28881  -0.86347  -0.67237  -0.55989
 Alpha  occ. eigenvalues --   -0.50832  -0.43672  -0.35646
 Alpha virt. eigenvalues --    0.07924   0.14073   0.16484   0.17012   0.24063
 Alpha virt. eigenvalues --    0.36890   0.39424   0.40170   0.46452   0.48873
 Alpha virt. eigenvalues --    0.49404   0.59078   0.66579   0.69128   0.77282

 Mulliken charges:
               1
     1  C   -0.339142
     2  H    0.174453
     3  H    0.175947
     4  C   -0.348684
     5  H    0.168820
     6  H    0.168606
 Sum of Mulliken charges =   0.00000

 Dipole moment (field-independent basis, Debye):
    X=              0.0136    Y=              0.0334    Z=             -0.1115  Tot=              0.1172
 Quadrupole moment (field-independent basis, Debye-Ang):
   XX=            -12.1982   YY=            -12.2322   ZZ=            -15.6790
   XY=              0.0015   XZ=              0.0006   YZ=             -0.0024

 Normal termination of Gaussian 16 at Wed Jan 11 18:38:15 2023.
