 Gaussian 16, Revision C.01,
 Gaussian 16:  ES64L-G16RevC.01  3-Jul-2019

 ----------------------------------------------------------------------
 # WB97XD/6-311+G* SCF=XQC TD=(singlets,nstates=2,root=1) FORCE nosym p
 op=full guess=read
 ----------------------------------------------------------------------

 ------------
 MD Step 1000
 ------------
 Symbolic Z-matrix:
 Charge =  0 Multiplicity = 1

                          Input orientation:
 ---------------------------------------------------------------------
 Center     Atomic      Atomic             Coordinates (Angstroms)
 Number     Number       Type             X           Y           Z
 ---------------------------------------------------------------------
      1          6           0        0.983972   -0.175516    0.112792
      2          1           0       -8.855488   -6.387482   -1.350788
      3          1           0       -7.962963   -6.154304   -1.746219
      4          6           0        0.327669    1.095553    0.091562
      5          1           0        0.051487    1.796904   -0.735019
      6          1           0        1.198328   -0.175534    1.462216
 ---------------------------------------------------------------------

 SCF Done:  E(RwB97XD) =  -78.3246463486     A.U. after    1 cycles

 Excitation energies and oscillator strengths:

 Excited state symmetry could not be determined.
 Excited State   1:      Singlet-?Sym    2.1420 eV  578.83 nm  f=0.0035  <S**2>=0.000
       8 ->  9         0.70458
 This state for optimization and/or second-order correction.
 Total Energy, E(TD-HF/TD-DFT) =  -78.2459294058
 Copying the excited state density for this state as the 1-particle RhoCI density.

 Excited state symmetry could not be determined.
 Excited State   2:      Singlet-?Sym    4.4380 eV  279.37 nm  f=0.0186  <S**2>=0.000
       7 ->  9         0.57803
       8 -> 10        -0.39911

 Alpha  occ. eigenvalues --  -10.36766 -10.36523  -0.83949  -0.64889  -0.47196
 Alpha  occ. eigenvalues --   -0.46556  -0.40824  -0.36099
 Alpha virt. eigenvalues --   -0.06152   0.04035   0.07617   0.08329   0.08332
 Alpha virt. eigenvalues --    0.10900   0.12344   0.13450   0.15366   0.17155
 Alpha virt. eigenvalues --    0.18454   0.21927   0.23853   0.30017   0.37332

 Mulliken charges:
               1
     1  C   -0.220948
     2  H   -0.000628
     3  H    0.000628
     4  C   -0.297085
     5  H    0.291096
     6  H    0.226937
 Sum of Mulliken charges =  -0.00000

 Dipole moment (field-independent basis, Debye):
    X=             -0.1993    Y=              1.4036    Z=              0.3057  Tot=              1.4502
 Quadrupole moment (field-independent basis, Debye-Ang):
   XX=            -16.7015   YY=            -13.7263   ZZ=            -13.4498
   XY=             -0.3081   XZ=              1.2382   YZ=             -1.5417

 Normal termination of Gaussian 16 at Thu Jan  5 10:17:32 2023.
