 Gaussian 16, Revision C.01,
 Gaussian 16:  ES64L-G16RevC.01  3-Jul-2019

 -------------------------------------------------------
 # WB97XD/6-311G SCF=XQC FORCE nosym pop=full guess=read
 -------------------------------------------------------

 -----------
 MD Step 999
 -----------
 Symbolic Z-matrix:
 Charge =  0 Multiplicity = 1

                          Input orientation:
 ---------------------------------------------------------------------
 Center     Atomic      Atomic             Coordinates (Angstroms)
 Number     Number       Type             X           Y           Z
 ---------------------------------------------------------------------
      1          6           0       -0.335741   -0.579923    0.008093
      2          1           0        0.212493   -1.528184   -0.029889
      3          1           0       -1.416935   -0.600711   -0.032594
      4          6           0        0.332396    0.577072    0.006282
      5          1           0       -0.164936    1.569377   -0.035040
      6          1           0        1.450874    0.635127   -0.032122
 ---------------------------------------------------------------------

 SCF Done:  E(RwB97XD) =  -78.5554352792     A.U. after    8 cycles

 Alpha  occ. eigenvalues --  -10.29168 -10.28727  -0.86409  -0.67154  -0.55872
 Alpha  occ. eigenvalues --   -0.50996  -0.43559  -0.35730
 Alpha virt. eigenvalues --    0.08001   0.14067   0.16405   0.16979   0.24077
 Alpha virt. eigenvalues --    0.37656   0.39194   0.39740   0.46277   0.48804
 Alpha virt. eigenvalues --    0.49347   0.59115   0.66449   0.69002   0.77138

 Mulliken charges:
               1
     1  C   -0.339646
     2  H    0.172533
     3  H    0.175000
     4  C   -0.344632
     5  H    0.169002
     6  H    0.167743
 Sum of Mulliken charges =   0.00000

 Dipole moment (field-independent basis, Debye):
    X=             -0.0052    Y=              0.0069    Z=             -0.1309  Tot=              0.1312
 Quadrupole moment (field-independent basis, Debye-Ang):
   XX=            -12.2131   YY=            -12.2207   ZZ=            -15.6701
   XY=              0.0208   XZ=              0.0026   YZ=             -0.0041

 Normal termination of Gaussian 16 at Wed Jan 11 18:46:36 2023.
