 Gaussian 16, Revision C.01,
 Gaussian 16:  ES64L-G16RevC.01  3-Jul-2019

 -------------------------------------------------------
 # WB97XD/6-311G SCF=XQC FORCE nosym pop=full guess=read
 -------------------------------------------------------

 ------------
 MD Step 1000
 ------------
 Symbolic Z-matrix:
 Charge =  0 Multiplicity = 1

                          Input orientation:
 ---------------------------------------------------------------------
 Center     Atomic      Atomic             Coordinates (Angstroms)
 Number     Number       Type             X           Y           Z
 ---------------------------------------------------------------------
      1          6           0       -0.335437   -0.580169    0.007090
      2          1           0        0.211800   -1.535147   -0.026293
      3          1           0       -1.421065   -0.594748   -0.026855
      4          6           0        0.333820    0.578626    0.006334
      5          1           0       -0.166838    1.558243   -0.029655
      6          1           0        1.443277    0.637927   -0.029262
 ---------------------------------------------------------------------

 SCF Done:  E(RwB97XD) =  -78.5559975472     A.U. after    8 cycles

 Alpha  occ. eigenvalues --  -10.29004 -10.28823  -0.86374  -0.67223  -0.55913
 Alpha  occ. eigenvalues --   -0.50941  -0.43679  -0.35683
 Alpha virt. eigenvalues --    0.07972   0.14097   0.16470   0.17024   0.24090
 Alpha virt. eigenvalues --    0.37570   0.39325   0.39700   0.46455   0.48802
 Alpha virt. eigenvalues --    0.49381   0.59107   0.66558   0.69089   0.77315

 Mulliken charges:
               1
     1  C   -0.340045
     2  H    0.172094
     3  H    0.174078
     4  C   -0.344737
     5  H    0.169677
     6  H    0.168933
 Sum of Mulliken charges =   0.00000

 Dipole moment (field-independent basis, Debye):
    X=             -0.0035    Y=              0.0170    Z=             -0.1151  Tot=              0.1164
 Quadrupole moment (field-independent basis, Debye-Ang):
   XX=            -12.2031   YY=            -12.2193   ZZ=            -15.6685
   XY=              0.0120   XZ=             -0.0022   YZ=             -0.0048

 Normal termination of Gaussian 16 at Wed Jan 11 19:54:03 2023.
