 Gaussian 16, Revision C.01,
 Gaussian 16:  ES64L-G16RevC.01  3-Jul-2019

 ----------------------------------------------------------------------
 # WB97XD/6-311++G** SCF=XQC TD=(singlets,nstates=2,root=1) FORCE nosym
  pop=full guess=read
 ----------------------------------------------------------------------

 ---------
 MD Step 1
 ---------
 Symbolic Z-matrix:
 Charge =  0 Multiplicity = 1

                          Input orientation:
 ---------------------------------------------------------------------
 Center     Atomic      Atomic             Coordinates (Angstroms)
 Number     Number       Type             X           Y           Z
 ---------------------------------------------------------------------
      1          6           0       -0.336544   -0.586413    0.001120
      2          1           0        0.199465   -1.511493    0.003861
      3          1           0       -1.403957   -0.583648    0.003865
      4          6           0        0.338783    0.588652    0.001119
      5          1           0       -0.191740    1.519222    0.003864
      6          1           0        1.411681    0.591374    0.003868
 ---------------------------------------------------------------------

 SCF Done:  E(RwB97XD) =  -78.5789142670     A.U. after    1 cycles

 Excitation energies and oscillator strengths:

 Excited state symmetry could not be determined.
 Excited State   1:      Singlet-?Sym    7.0432 eV  176.03 nm  f=0.0718  <S**2>=0.000
       8 ->  9         0.68489
       8 -> 16        -0.11022
       8 -> 21        -0.11552
 This state for optimization and/or second-order correction.
 Total Energy, E(TD-HF/TD-DFT) =  -78.3200823323
 Copying the excited state density for this state as the 1-particle RhoCI density.

 Excited state symmetry could not be determined.
 Excited State   2:      Singlet-?Sym    7.3978 eV  167.60 nm  f=0.3603  <S**2>=0.000
       8 -> 10         0.70203

 Alpha  occ. eigenvalues --  -10.28578 -10.28477  -0.86146  -0.67924  -0.56706
 Alpha  occ. eigenvalues --   -0.50139  -0.45024  -0.35511
 Alpha virt. eigenvalues --    0.05098   0.05920   0.06515   0.06628   0.08575
 Alpha virt. eigenvalues --    0.12538   0.13895   0.17231   0.17716   0.17922
 Alpha virt. eigenvalues --    0.19850   0.21437   0.22246   0.22625   0.24772

 Mulliken charges:
               1
     1  C   -0.258954
     2  H    0.130056
     3  H    0.128877
     4  C   -0.258024
     5  H    0.129866
     6  H    0.128179
 Sum of Mulliken charges =  -0.00000

 Dipole moment (field-independent basis, Debye):
    X=             -0.0000    Y=              0.0017    Z=              0.0088  Tot=              0.0090
 Quadrupole moment (field-independent basis, Debye-Ang):
   XX=            -12.1623   YY=            -12.2540   ZZ=            -15.8417
   XY=             -0.1056   XZ=              0.0000   YZ=              0.0000

 Normal termination of Gaussian 16 at Sat Jan 14 14:16:02 2023.
