 Gaussian 16, Revision C.01,
 Gaussian 16:  ES64L-G16RevC.01  3-Jul-2019

 -------------------------------------------------------
 # WB97XD/6-311G SCF=XQC FORCE nosym pop=full guess=read
 -------------------------------------------------------

 -----------
 MD Step 999
 -----------
 Symbolic Z-matrix:
 Charge =  0 Multiplicity = 1

                          Input orientation:
 ---------------------------------------------------------------------
 Center     Atomic      Atomic             Coordinates (Angstroms)
 Number     Number       Type             X           Y           Z
 ---------------------------------------------------------------------
      1          6           0       -0.336714   -0.582229    0.006704
      2          1           0        0.226560   -1.521583   -0.020674
      3          1           0       -1.419514   -0.581233   -0.022212
      4          6           0        0.331968    0.575817    0.004865
      5          1           0       -0.148902    1.570677   -0.025104
      6          1           0        1.444732    0.654858   -0.023529
 ---------------------------------------------------------------------

 SCF Done:  E(RwB97XD) =  -78.5552482944     A.U. after    8 cycles

 Alpha  occ. eigenvalues --  -10.29048 -10.28775  -0.86408  -0.67237  -0.55957
 Alpha  occ. eigenvalues --   -0.50968  -0.43582  -0.35706
 Alpha virt. eigenvalues --    0.07998   0.14097   0.16468   0.17000   0.24075
 Alpha virt. eigenvalues --    0.37187   0.39291   0.40170   0.46333   0.48908
 Alpha virt. eigenvalues --    0.49367   0.59111   0.66547   0.69142   0.77237

 Mulliken charges:
               1
     1  C   -0.338979
     2  H    0.174059
     3  H    0.175991
     4  C   -0.347604
     5  H    0.168832
     6  H    0.167701
 Sum of Mulliken charges =   0.00000

 Dipole moment (field-independent basis, Debye):
    X=              0.0050    Y=              0.0264    Z=             -0.0951  Tot=              0.0988
 Quadrupole moment (field-independent basis, Debye-Ang):
   XX=            -12.2090   YY=            -12.2144   ZZ=            -15.6678
   XY=              0.0229   XZ=              0.0002   YZ=             -0.0044

 Normal termination of Gaussian 16 at Wed Jan 11 18:30:12 2023.
