 Gaussian 16, Revision C.01,
 Gaussian 16:  ES64L-G16RevC.01  3-Jul-2019

 -------------------------------------------------------
 # WB97XD/6-311G SCF=XQC FORCE nosym pop=full guess=read
 -------------------------------------------------------

 -----------
 MD Step 999
 -----------
 Symbolic Z-matrix:
 Charge =  0 Multiplicity = 1

                          Input orientation:
 ---------------------------------------------------------------------
 Center     Atomic      Atomic             Coordinates (Angstroms)
 Number     Number       Type             X           Y           Z
 ---------------------------------------------------------------------
      1          6           0       -0.335676   -0.581568    0.006710
      2          1           0        0.214874   -1.528462   -0.022791
      3          1           0       -1.421829   -0.584134   -0.023155
      4          6           0        0.333311    0.576626    0.005506
      5          1           0       -0.161138    1.565521   -0.026628
      6          1           0        1.443028    0.652719   -0.026233
 ---------------------------------------------------------------------

 SCF Done:  E(RwB97XD) =  -78.5556647056     A.U. after    8 cycles

 Alpha  occ. eigenvalues --  -10.29043 -10.28795  -0.86389  -0.67229  -0.55912
 Alpha  occ. eigenvalues --   -0.50978  -0.43613  -0.35699
 Alpha virt. eigenvalues --    0.07989   0.14102   0.16460   0.17000   0.24082
 Alpha virt. eigenvalues --    0.37392   0.39269   0.39969   0.46368   0.48841
 Alpha virt. eigenvalues --    0.49371   0.59108   0.66545   0.69091   0.77256

 Mulliken charges:
               1
     1  C   -0.339369
     2  H    0.173565
     3  H    0.174768
     4  C   -0.346235
     5  H    0.168587
     6  H    0.168685
 Sum of Mulliken charges =  -0.00000

 Dipole moment (field-independent basis, Debye):
    X=              0.0026    Y=              0.0205    Z=             -0.1020  Tot=              0.1041
 Quadrupole moment (field-independent basis, Debye-Ang):
   XX=            -12.2080   YY=            -12.2130   ZZ=            -15.6689
   XY=              0.0235   XZ=             -0.0024   YZ=             -0.0053

 Normal termination of Gaussian 16 at Wed Jan 11 18:45:27 2023.
