 Gaussian 16, Revision C.01,
 Gaussian 16:  ES64L-G16RevC.01  3-Jul-2019

 -------------------------------------------------------
 # WB97XD/6-311G SCF=XQC FORCE nosym pop=full guess=read
 -------------------------------------------------------

 -----------
 MD Step 999
 -----------
 Symbolic Z-matrix:
 Charge =  0 Multiplicity = 1

                          Input orientation:
 ---------------------------------------------------------------------
 Center     Atomic      Atomic             Coordinates (Angstroms)
 Number     Number       Type             X           Y           Z
 ---------------------------------------------------------------------
      1          6           0       -0.336715   -0.581896    0.007746
      2          1           0        0.228226   -1.527311   -0.027946
      3          1           0       -1.424957   -0.584203   -0.029451
      4          6           0        0.332273    0.576521    0.005578
      5          1           0       -0.150233    1.566344   -0.031986
      6          1           0        1.439159    0.648487   -0.030117
 ---------------------------------------------------------------------

 SCF Done:  E(RwB97XD) =  -78.5554167984     A.U. after    8 cycles

 Alpha  occ. eigenvalues --  -10.28980 -10.28874  -0.86389  -0.67219  -0.55924
 Alpha  occ. eigenvalues --   -0.50934  -0.43612  -0.35696
 Alpha virt. eigenvalues --    0.07976   0.14082   0.16456   0.17000   0.24084
 Alpha virt. eigenvalues --    0.37193   0.39320   0.40072   0.46408   0.48846
 Alpha virt. eigenvalues --    0.49372   0.59107   0.66535   0.69065   0.77318

 Mulliken charges:
               1
     1  C   -0.339073
     2  H    0.173070
     3  H    0.175154
     4  C   -0.347020
     5  H    0.169439
     6  H    0.168429
 Sum of Mulliken charges =   0.00000

 Dipole moment (field-independent basis, Debye):
    X=              0.0088    Y=              0.0298    Z=             -0.1212  Tot=              0.1252
 Quadrupole moment (field-independent basis, Debye-Ang):
   XX=            -12.2065   YY=            -12.2237   ZZ=            -15.6701
   XY=              0.0136   XZ=              0.0009   YZ=             -0.0032

 Normal termination of Gaussian 16 at Wed Jan 11 18:38:11 2023.
