 Gaussian 16, Revision C.01,
 Gaussian 16:  ES64L-G16RevC.01  3-Jul-2019

 -------------------------------------------------------
 # WB97XD/6-311G SCF=XQC FORCE nosym pop=full guess=read
 -------------------------------------------------------

 -----------
 MD Step 999
 -----------
 Symbolic Z-matrix:
 Charge =  0 Multiplicity = 1

                          Input orientation:
 ---------------------------------------------------------------------
 Center     Atomic      Atomic             Coordinates (Angstroms)
 Number     Number       Type             X           Y           Z
 ---------------------------------------------------------------------
      1          6           0       -0.336456   -0.581605    0.007535
      2          1           0        0.226707   -1.525086   -0.025057
      3          1           0       -1.423296   -0.585689   -0.027078
      4          6           0        0.331932    0.576017    0.005022
      5          1           0       -0.152954    1.571284   -0.029212
      6          1           0        1.444845    0.647467   -0.026894
 ---------------------------------------------------------------------

 SCF Done:  E(RwB97XD) =  -78.5552529929     A.U. after    8 cycles

 Alpha  occ. eigenvalues --  -10.29075 -10.28840  -0.86400  -0.67149  -0.55907
 Alpha  occ. eigenvalues --   -0.50939  -0.43555  -0.35720
 Alpha virt. eigenvalues --    0.08001   0.14061   0.16410   0.16967   0.24067
 Alpha virt. eigenvalues --    0.37245   0.39264   0.40024   0.46299   0.48801
 Alpha virt. eigenvalues --    0.49353   0.59107   0.66486   0.68990   0.77205

 Mulliken charges:
               1
     1  C   -0.338992
     2  H    0.173391
     3  H    0.175446
     4  C   -0.346708
     5  H    0.168976
     6  H    0.167888
 Sum of Mulliken charges =  -0.00000

 Dipole moment (field-independent basis, Debye):
    X=              0.0061    Y=              0.0235    Z=             -0.1105  Tot=              0.1131
 Quadrupole moment (field-independent basis, Debye-Ang):
   XX=            -12.2092   YY=            -12.2265   ZZ=            -15.6763
   XY=              0.0128   XZ=              0.0025   YZ=             -0.0024

 Normal termination of Gaussian 16 at Wed Jan 11 16:59:08 2023.
