 Gaussian 16, Revision C.01,
 Gaussian 16:  ES64L-G16RevC.01  3-Jul-2019

 -------------------------------------------------------
 # WB97XD/6-311G SCF=XQC FORCE nosym pop=full guess=read
 -------------------------------------------------------

 ------------
 MD Step 1000
 ------------
 Symbolic Z-matrix:
 Charge =  0 Multiplicity = 1

                          Input orientation:
 ---------------------------------------------------------------------
 Center     Atomic      Atomic             Coordinates (Angstroms)
 Number     Number       Type             X           Y           Z
 ---------------------------------------------------------------------
      1          6           0       -0.336855   -0.582895    0.008007
      2          1           0        0.223363   -1.521767   -0.028348
      3          1           0       -1.422284   -0.584468   -0.030240
      4          6           0        0.333011    0.577361    0.005612
      5          1           0       -0.154694    1.565360   -0.033158
      6          1           0        1.438755    0.646154   -0.031183
 ---------------------------------------------------------------------

 SCF Done:  E(RwB97XD) =  -78.5556348940     A.U. after    8 cycles

 Alpha  occ. eigenvalues --  -10.28979 -10.28790  -0.86373  -0.67287  -0.56002
 Alpha  occ. eigenvalues --   -0.50895  -0.43721  -0.35653
 Alpha virt. eigenvalues --    0.07936   0.14113   0.16523   0.17063   0.24090
 Alpha virt. eigenvalues --    0.37233   0.39433   0.39962   0.46507   0.48938
 Alpha virt. eigenvalues --    0.49405   0.59100   0.66617   0.69241   0.77325

 Mulliken charges:
               1
     1  C   -0.339421
     2  H    0.173601
     3  H    0.175214
     4  C   -0.347117
     5  H    0.169189
     6  H    0.168534
 Sum of Mulliken charges =  -0.00000

 Dipole moment (field-independent basis, Debye):
    X=              0.0087    Y=              0.0234    Z=             -0.1248  Tot=              0.1273
 Quadrupole moment (field-independent basis, Debye-Ang):
   XX=            -12.1992   YY=            -12.2232   ZZ=            -15.6640
   XY=              0.0077   XZ=              0.0011   YZ=             -0.0040

 Normal termination of Gaussian 16 at Wed Jan 11 19:42:35 2023.
