 Gaussian 16, Revision C.01,
 Gaussian 16:  ES64L-G16RevC.01  3-Jul-2019

 -------------------------------------------------------
 # WB97XD/6-311G SCF=XQC FORCE nosym pop=full guess=read
 -------------------------------------------------------

 -----------
 MD Step 999
 -----------
 Symbolic Z-matrix:
 Charge =  0 Multiplicity = 1

                          Input orientation:
 ---------------------------------------------------------------------
 Center     Atomic      Atomic             Coordinates (Angstroms)
 Number     Number       Type             X           Y           Z
 ---------------------------------------------------------------------
      1          6           0       -0.336201   -0.582203    0.007813
      2          1           0        0.217377   -1.525802   -0.028209
      3          1           0       -1.419182   -0.580602   -0.028821
      4          6           0        0.332439    0.575708    0.005833
      5          1           0       -0.160687    1.570315   -0.032481
      6          1           0        1.448816    0.654977   -0.031594
 ---------------------------------------------------------------------

 SCF Done:  E(RwB97XD) =  -78.5550677465     A.U. after    8 cycles

 Alpha  occ. eigenvalues --  -10.29152 -10.28767  -0.86399  -0.67161  -0.55912
 Alpha  occ. eigenvalues --   -0.50956  -0.43551  -0.35714
 Alpha virt. eigenvalues --    0.07983   0.14067   0.16413   0.16971   0.24062
 Alpha virt. eigenvalues --    0.37315   0.39229   0.40007   0.46266   0.48837
 Alpha virt. eigenvalues --    0.49357   0.59102   0.66478   0.69028   0.77138

 Mulliken charges:
               1
     1  C   -0.339086
     2  H    0.174177
     3  H    0.175474
     4  C   -0.346663
     5  H    0.168172
     6  H    0.167927
 Sum of Mulliken charges =   0.00000

 Dipole moment (field-independent basis, Debye):
    X=             -0.0003    Y=              0.0193    Z=             -0.1228  Tot=              0.1243
 Quadrupole moment (field-independent basis, Debye-Ang):
   XX=            -12.2137   YY=            -12.2216   ZZ=            -15.6748
   XY=              0.0173   XZ=             -0.0013   YZ=             -0.0047

 Normal termination of Gaussian 16 at Wed Jan 11 19:40:58 2023.
