 Gaussian 16, Revision C.01,
 Gaussian 16:  ES64L-G16RevC.01  3-Jul-2019

 ------------------------------------------
 # BLYP/STO-3G SCF=XQC FORCE nosym pop=full
 ------------------------------------------

 ------------
 MD Step 1000
 ------------
 Symbolic Z-matrix:
 Charge =  0 Multiplicity = 1

                          Input orientation:
 ---------------------------------------------------------------------
 Center     Atomic      Atomic             Coordinates (Angstroms)
 Number     Number       Type             X           Y           Z
 ---------------------------------------------------------------------
      1          3           0        1.829247    1.829349    2.568315
      2          1           0        1.868550    1.868766   -0.224754
 ---------------------------------------------------------------------

 SCF Done:  E(RB-LYP) =  -7.85499951934     A.U. after   15 cycles

 Alpha  occ. eigenvalues --   -1.80375  -0.10102
 Alpha virt. eigenvalues --   -0.04969   0.01683   0.01683   0.09109

 Mulliken charges:
               1
     1  Li   0.041567
     2  H   -0.041567
 Sum of Mulliken charges =  -0.00000

 Dipole moment (field-independent basis, Debye):
    X=             -0.0599    Y=             -0.0601    Z=              4.2569  Tot=              4.2577
 Quadrupole moment (field-independent basis, Debye-Ang):
   XX=             -6.2415   YY=             -6.2421   ZZ=             11.5606
   XY=             -0.2203   XZ=              7.6933   YZ=              7.6935

 Normal termination of Gaussian 16 at Thu Dec 29 01:34:37 2022.
