 Gaussian 16, Revision C.01,
 Gaussian 16:  ES64L-G16RevC.01  3-Jul-2019

 -------------------------------------------------------
 # WB97XD/6-311G SCF=XQC FORCE nosym pop=full guess=read
 -------------------------------------------------------

 -----------
 MD Step 999
 -----------
 Symbolic Z-matrix:
 Charge =  0 Multiplicity = 1

                          Input orientation:
 ---------------------------------------------------------------------
 Center     Atomic      Atomic             Coordinates (Angstroms)
 Number     Number       Type             X           Y           Z
 ---------------------------------------------------------------------
      1          6           0       -0.336033   -0.580551    0.007564
      2          1           0        0.219604   -1.534581   -0.028819
      3          1           0       -1.423286   -0.589080   -0.029039
      4          6           0        0.332773    0.577039    0.005765
      5          1           0       -0.156858    1.559472   -0.030941
      6          1           0        1.438895    0.645551   -0.030506
 ---------------------------------------------------------------------

 SCF Done:  E(RwB97XD) =  -78.5557781959     A.U. after    8 cycles

 Alpha  occ. eigenvalues --  -10.28947 -10.28854  -0.86402  -0.67243  -0.55903
 Alpha  occ. eigenvalues --   -0.50985  -0.43625  -0.35707
 Alpha virt. eigenvalues --    0.07994   0.14102   0.16466   0.17014   0.24100
 Alpha virt. eigenvalues --    0.37423   0.39293   0.39944   0.46433   0.48845
 Alpha virt. eigenvalues --    0.49367   0.59120   0.66545   0.69088   0.77363

 Mulliken charges:
               1
     1  C   -0.339362
     2  H    0.172204
     3  H    0.174377
     4  C   -0.345809
     5  H    0.169715
     6  H    0.168874
 Sum of Mulliken charges =  -0.00000

 Dipole moment (field-independent basis, Debye):
    X=              0.0023    Y=              0.0278    Z=             -0.1209  Tot=              0.1241
 Quadrupole moment (field-independent basis, Debye-Ang):
   XX=            -12.2078   YY=            -12.2159   ZZ=            -15.6632
   XY=              0.0205   XZ=             -0.0007   YZ=             -0.0015

 Normal termination of Gaussian 16 at Wed Jan 11 19:42:59 2023.
