 Gaussian 16, Revision C.01,
 Gaussian 16:  ES64L-G16RevC.01  3-Jul-2019

 -------------------------------------------------------
 # WB97XD/6-311G SCF=XQC FORCE nosym pop=full guess=read
 -------------------------------------------------------

 ------------
 MD Step 1000
 ------------
 Symbolic Z-matrix:
 Charge =  0 Multiplicity = 1

                          Input orientation:
 ---------------------------------------------------------------------
 Center     Atomic      Atomic             Coordinates (Angstroms)
 Number     Number       Type             X           Y           Z
 ---------------------------------------------------------------------
      1          6           0       -0.337013   -0.582828    0.006696
      2          1           0        0.226902   -1.523548   -0.020226
      3          1           0       -1.419217   -0.577057   -0.020954
      4          6           0        0.332362    0.576346    0.004447
      5          1           0       -0.151292    1.566928   -0.023947
      6          1           0        1.443368    0.655248   -0.023298
 ---------------------------------------------------------------------

 SCF Done:  E(RwB97XD) =  -78.5553293477     A.U. after    8 cycles

 Alpha  occ. eigenvalues --  -10.29015 -10.28791  -0.86390  -0.67252  -0.55993
 Alpha  occ. eigenvalues --   -0.50910  -0.43647  -0.35679
 Alpha virt. eigenvalues --    0.07976   0.14096   0.16492   0.17025   0.24075
 Alpha virt. eigenvalues --    0.37113   0.39381   0.40117   0.46408   0.48915
 Alpha virt. eigenvalues --    0.49385   0.59104   0.66582   0.69194   0.77275

 Mulliken charges:
               1
     1  C   -0.339135
     2  H    0.174094
     3  H    0.175909
     4  C   -0.347810
     5  H    0.168949
     6  H    0.167994
 Sum of Mulliken charges =   0.00000

 Dipole moment (field-independent basis, Debye):
    X=              0.0040    Y=              0.0296    Z=             -0.0920  Tot=              0.0967
 Quadrupole moment (field-independent basis, Debye-Ang):
   XX=            -12.2034   YY=            -12.2190   ZZ=            -15.6692
   XY=              0.0112   XZ=             -0.0009   YZ=             -0.0034

 Normal termination of Gaussian 16 at Wed Jan 11 18:38:02 2023.
