 Gaussian 16, Revision C.01,
 Gaussian 16:  ES64L-G16RevC.01  3-Jul-2019

 -------------------------------------------------------
 # WB97XD/6-311G SCF=XQC FORCE nosym pop=full guess=read
 -------------------------------------------------------

 ------------
 MD Step 1000
 ------------
 Symbolic Z-matrix:
 Charge =  0 Multiplicity = 1

                          Input orientation:
 ---------------------------------------------------------------------
 Center     Atomic      Atomic             Coordinates (Angstroms)
 Number     Number       Type             X           Y           Z
 ---------------------------------------------------------------------
      1          6           0       -0.335658   -0.581510    0.007827
      2          1           0        0.210815   -1.532354   -0.029618
      3          1           0       -1.420539   -0.584155   -0.029694
      4          6           0        0.333500    0.576897    0.005710
      5          1           0       -0.168498    1.562612   -0.030970
      6          1           0        1.444271    0.649211   -0.030679
 ---------------------------------------------------------------------

 SCF Done:  E(RwB97XD) =  -78.5556359363     A.U. after    8 cycles

 Alpha  occ. eigenvalues --  -10.29069 -10.28795  -0.86385  -0.67194  -0.55914
 Alpha  occ. eigenvalues --   -0.50942  -0.43631  -0.35694
 Alpha virt. eigenvalues --    0.07974   0.14086   0.16445   0.17005   0.24080
 Alpha virt. eigenvalues --    0.37454   0.39297   0.39819   0.46385   0.48820
 Alpha virt. eigenvalues --    0.49373   0.59105   0.66526   0.69067   0.77234

 Mulliken charges:
               1
     1  C   -0.339506
     2  H    0.173278
     3  H    0.174429
     4  C   -0.345663
     5  H    0.168558
     6  H    0.168905
 Sum of Mulliken charges =   0.00000

 Dipole moment (field-independent basis, Debye):
    X=             -0.0014    Y=              0.0183    Z=             -0.1227  Tot=              0.1240
 Quadrupole moment (field-independent basis, Debye-Ang):
   XX=            -12.2071   YY=            -12.2220   ZZ=            -15.6708
   XY=              0.0125   XZ=              0.0005   YZ=              0.0002

 Normal termination of Gaussian 16 at Wed Jan 11 18:49:33 2023.
