 Gaussian 16, Revision C.01,
 Gaussian 16:  ES64L-G16RevC.01  3-Jul-2019

 -------------------------------------------------------
 # WB97XD/6-311G SCF=XQC FORCE nosym pop=full guess=read
 -------------------------------------------------------

 -----------
 MD Step 999
 -----------
 Symbolic Z-matrix:
 Charge =  0 Multiplicity = 1

                          Input orientation:
 ---------------------------------------------------------------------
 Center     Atomic      Atomic             Coordinates (Angstroms)
 Number     Number       Type             X           Y           Z
 ---------------------------------------------------------------------
      1          6           0       -0.335502   -0.580681    0.007738
      2          1           0        0.211515   -1.529487   -0.029961
      3          1           0       -1.420214   -0.593218   -0.031114
      4          6           0        0.332761    0.576709    0.006576
      5          1           0       -0.164353    1.567886   -0.034511
      6          1           0        1.447543    0.643964   -0.033169
 ---------------------------------------------------------------------

 SCF Done:  E(RwB97XD) =  -78.5554865816     A.U. after    8 cycles

 Alpha  occ. eigenvalues --  -10.29127 -10.28772  -0.86399  -0.67173  -0.55864
 Alpha  occ. eigenvalues --   -0.51004  -0.43559  -0.35723
 Alpha virt. eigenvalues --    0.07992   0.14080   0.16412   0.16974   0.24078
 Alpha virt. eigenvalues --    0.37569   0.39186   0.39843   0.46295   0.48799
 Alpha virt. eigenvalues --    0.49353   0.59110   0.66474   0.68990   0.77174

 Mulliken charges:
               1
     1  C   -0.339487
     2  H    0.173056
     3  H    0.174675
     4  C   -0.345175
     5  H    0.168728
     6  H    0.168203
 Sum of Mulliken charges =  -0.00000

 Dipole moment (field-independent basis, Debye):
    X=             -0.0017    Y=              0.0122    Z=             -0.1300  Tot=              0.1306
 Quadrupole moment (field-independent basis, Debye-Ang):
   XX=            -12.2152   YY=            -12.2162   ZZ=            -15.6705
   XY=              0.0243   XZ=             -0.0011   YZ=             -0.0056

 Normal termination of Gaussian 16 at Wed Jan 11 18:39:07 2023.
