 Gaussian 16, Revision C.01,
 Gaussian 16:  ES64L-G16RevC.01  3-Jul-2019

 -------------------------------------------------------
 # WB97XD/6-311G SCF=XQC FORCE nosym pop=full guess=read
 -------------------------------------------------------

 ------------
 MD Step 1000
 ------------
 Symbolic Z-matrix:
 Charge =  0 Multiplicity = 1

                          Input orientation:
 ---------------------------------------------------------------------
 Center     Atomic      Atomic             Coordinates (Angstroms)
 Number     Number       Type             X           Y           Z
 ---------------------------------------------------------------------
      1          6           0       -0.336227   -0.581536    0.006568
      2          1           0        0.217663   -1.530654   -0.023847
      3          1           0       -1.423836   -0.591193   -0.025079
      4          6           0        0.333194    0.578044    0.005090
      5          1           0       -0.159208    1.559544   -0.026682
      6          1           0        1.439417    0.641807   -0.025409
 ---------------------------------------------------------------------

 SCF Done:  E(RwB97XD) =  -78.5560106698     A.U. after    8 cycles

 Alpha  occ. eigenvalues --  -10.28954 -10.28834  -0.86367  -0.67272  -0.55943
 Alpha  occ. eigenvalues --   -0.50933  -0.43707  -0.35666
 Alpha virt. eigenvalues --    0.07964   0.14112   0.16504   0.17041   0.24094
 Alpha virt. eigenvalues --    0.37419   0.39368   0.39842   0.46495   0.48849
 Alpha virt. eigenvalues --    0.49394   0.59104   0.66600   0.69161   0.77370

 Mulliken charges:
               1
     1  C   -0.339753
     2  H    0.172562
     3  H    0.174349
     4  C   -0.345809
     5  H    0.169797
     6  H    0.168853
 Sum of Mulliken charges =   0.00000

 Dipole moment (field-independent basis, Debye):
    X=              0.0034    Y=              0.0228    Z=             -0.1032  Tot=              0.1057
 Quadrupole moment (field-independent basis, Debye-Ang):
   XX=            -12.2012   YY=            -12.2148   ZZ=            -15.6663
   XY=              0.0137   XZ=              0.0009   YZ=             -0.0022

 Normal termination of Gaussian 16 at Wed Jan 11 18:46:35 2023.
