 Gaussian 16, Revision C.01,
 Gaussian 16:  ES64L-G16RevC.01  3-Jul-2019

 -------------------------------------------------------
 # WB97XD/6-311G SCF=XQC FORCE nosym pop=full guess=read
 -------------------------------------------------------

 -----------
 MD Step 999
 -----------
 Symbolic Z-matrix:
 Charge =  0 Multiplicity = 1

                          Input orientation:
 ---------------------------------------------------------------------
 Center     Atomic      Atomic             Coordinates (Angstroms)
 Number     Number       Type             X           Y           Z
 ---------------------------------------------------------------------
      1          6           0       -0.333797   -0.578468    0.007897
      2          1           0        0.190590   -1.539124   -0.032963
      3          1           0       -1.416984   -0.603831   -0.033371
      4          6           0        0.333739    0.577396    0.006528
      5          1           0       -0.182108    1.557397   -0.034676
      6          1           0        1.445954    0.635089   -0.034119
 ---------------------------------------------------------------------

 SCF Done:  E(RwB97XD) =  -78.5560034980     A.U. after    8 cycles

 Alpha  occ. eigenvalues --  -10.29086 -10.28693  -0.86435  -0.67223  -0.55845
 Alpha  occ. eigenvalues --   -0.51085  -0.43580  -0.35745
 Alpha virt. eigenvalues --    0.08026   0.14115   0.16435   0.17008   0.24113
 Alpha virt. eigenvalues --    0.37934   0.39173   0.39639   0.46351   0.48847
 Alpha virt. eigenvalues --    0.49343   0.59140   0.66482   0.69074   0.77232

 Mulliken charges:
               1
     1  C   -0.340517
     2  H    0.172050
     3  H    0.173188
     4  C   -0.342952
     5  H    0.168899
     6  H    0.169332
 Sum of Mulliken charges =  -0.00000

 Dipole moment (field-independent basis, Debye):
    X=             -0.0111    Y=              0.0006    Z=             -0.1353  Tot=              0.1358
 Quadrupole moment (field-independent basis, Debye-Ang):
   XX=            -12.2163   YY=            -12.2065   ZZ=            -15.6554
   XY=              0.0339   XZ=              0.0006   YZ=             -0.0009

 Normal termination of Gaussian 16 at Wed Jan 11 16:47:44 2023.
