 Gaussian 16, Revision C.01,
 Gaussian 16:  ES64L-G16RevC.01  3-Jul-2019

 -------------------------------------------------------
 # WB97XD/6-311G SCF=XQC FORCE nosym pop=full guess=read
 -------------------------------------------------------

 ------------
 MD Step 1000
 ------------
 Symbolic Z-matrix:
 Charge =  0 Multiplicity = 1

                          Input orientation:
 ---------------------------------------------------------------------
 Center     Atomic      Atomic             Coordinates (Angstroms)
 Number     Number       Type             X           Y           Z
 ---------------------------------------------------------------------
      1          6           0       -0.337310   -0.582989    0.004803
      2          1           0        0.231582   -1.526133   -0.013064
      3          1           0       -1.425037   -0.577157   -0.014345
      4          6           0        0.332433    0.576858    0.003598
      5          1           0       -0.145835    1.559624   -0.018252
      6          1           0        1.434862    0.654174   -0.016987
 ---------------------------------------------------------------------

 SCF Done:  E(RwB97XD) =  -78.5556523035     A.U. after    8 cycles

 Alpha  occ. eigenvalues --  -10.28917 -10.28801  -0.86380  -0.67332  -0.56012
 Alpha  occ. eigenvalues --   -0.50895  -0.43722  -0.35657
 Alpha virt. eigenvalues --    0.07974   0.14117   0.16545   0.17061   0.24099
 Alpha virt. eigenvalues --    0.37015   0.39474   0.40174   0.46549   0.48947
 Alpha virt. eigenvalues --    0.49402   0.59108   0.66635   0.69289   0.77459

 Mulliken charges:
               1
     1  C   -0.339287
     2  H    0.173473
     3  H    0.175348
     4  C   -0.348126
     5  H    0.169904
     6  H    0.168688
 Sum of Mulliken charges =   0.00000

 Dipole moment (field-independent basis, Debye):
    X=              0.0101    Y=              0.0391    Z=             -0.0661  Tot=              0.0774
 Quadrupole moment (field-independent basis, Debye-Ang):
   XX=            -12.1954   YY=            -12.2151   ZZ=            -15.6637
   XY=              0.0103   XZ=             -0.0017   YZ=             -0.0070

 Normal termination of Gaussian 16 at Wed Jan 11 18:35:44 2023.
